Generic title
 1912
    1ACE     H1    1   0.499   1.407   0.271  1.3143  1.1532 -0.1668
    1ACE    CH3    2   0.447   1.466   0.195  0.2980  0.5730  0.0656
    1ACE     H2    3   0.380   1.536   0.245 -1.4388 -0.2446 -1.0261
    1ACE     H3    4   0.392   1.395   0.134  0.3809  0.5385  0.0315
    1ACE      C    5   0.543   1.551   0.116 -0.2236 -0.7176 -0.3732
    1ACE      O    6   0.518   1.595  -0.000 -0.1305  0.1115 -0.0211
    2ALA      N    7   0.648   1.589   0.188  0.2908  0.0560 -0.1332
    2ALA      H    8   0.666   1.550   0.279  1.2161  2.6154  0.8722
    2ALA     CA    9   0.741   1.693   0.149 -0.0602 -0.8388  0.0575
    2ALA     HA   10   0.751   1.691   0.041  1.7907 -1.1417  0.2001
    2ALA     CB   11   0.698   1.827   0.195 -0.6230 -0.2077  0.0502
    2ALA    HB1   12   0.600   1.858   0.158 -0.8497 -0.4432  0.4393
    2ALA    HB2   13   0.692   1.830   0.304  2.3449  0.7481  0.2600
    2ALA    HB3   14   0.774   1.896   0.159  1.7596 -2.4082  0.5508
    2ALA      C   15   0.876   1.673   0.213 -0.1849  0.3868  0.3559
    2ALA      O   16   0.883   1.590   0.306  0.3780 -0.2840  0.0488
    3NME      N   17   0.978   1.746   0.173 -0.1845 -0.0636 -0.0595
    3NME      H   18   0.966   1.819   0.105  1.8075  0.5590  0.1839
    3NME      C   19   1.110   1.735   0.220 -0.2297  0.1056 -0.0334
    3NME     H1   20   1.121   1.633   0.255 -1.7372 -1.1165 -2.7699
    3NME     H2   21   1.176   1.740   0.133  0.3757 -1.4486  0.3145
    3NME     H3   22   1.131   1.805   0.301 -0.4509  2.5818 -1.9876
    4WAT      O   23   0.051   1.922   1.766 -0.2185 -0.4806  0.2237
    4WAT     H1   24   0.132   1.934   1.815 -1.6538 -0.9118  2.8835
    4WAT     H2   25  -0.001   2.000   1.786 -0.6514 -0.3845 -1.1500
    5WAT      O   26   0.462   0.536   2.439  1.0190  0.1104  1.2517
    5WAT     H1   27   0.453   0.625   2.473  0.3365  0.0849  1.1354
    5WAT     H2   28   0.430   0.480   2.510  3.2727 -0.1833  2.1344
    6WAT      O   29   1.981   2.095   1.564  0.6835  0.1624  0.3484
    6WAT     H1   30   2.034   2.160   1.610 -0.3522  2.6396 -1.6848
    6WAT     H2   31   2.044   2.043   1.515  1.5075  0.1133  1.4337
    7WAT      O   32   1.677   1.201   1.375  0.1658  0.5161 -0.3611
    7WAT     H1   33   1.635   1.208   1.290 -0.3666  0.6654 -0.0904
    7WAT     H2   34   1.751   1.262   1.371  0.8722 -0.3650 -1.1323
    8WAT      O   35   1.314   2.238   0.080 -0.4583 -0.1955  0.1300
    8WAT     H1   36   1.302   2.252   0.173 -3.5381 -0.8737 -0.0658
    8WAT     H2   37   1.288   2.147   0.066  0.9057 -0.4187 -1.2756
    9WAT      O   38   0.635   0.821   1.773 -0.8129  0.1363 -0.3921
    9WAT     H1   39   0.651   0.899   1.827 -0.9030 -0.8578  1.1227
    9WAT     H2   40   0.707   0.820   1.711  0.8337 -0.1152  1.4239
   10WAT      O   41   0.724   0.983   0.281 -0.1700  0.0539 -0.2174
   10WAT     H1   42   0.630   1.001   0.274 -0.1655  0.3340  0.3777
   10WAT     H2   43   0.730   0.905   0.336 -0.0381  0.2814  0.0943
   11WAT      O   44   0.746   2.016   1.105 -0.1394  0.0668  0.3868
   11WAT     H1   45   0.651   2.013   1.105 -0.2554 -0.8170  3.8829
   11WAT     H2   46   0.767   2.099   1.149  0.8841  1.5371 -2.5831
   12WAT      O   47   1.390   0.736   2.388  0.4217 -0.1597 -0.6108
   12WAT     H1   48   1.357   0.825   2.399 -1.3940 -0.9153  0.5139
   12WAT     H2   49   1.370   0.713   2.298  0.6522  0.4546 -0.8246
   13WAT      O   50   1.005   0.418   0.643  0.4700 -0.2192  0.4317
   13WAT     H1   51   0.915   0.424   0.612  0.2215 -0.1245  1.1719
   13WAT     H2   52   1.057   0.418   0.562 -0.1151  0.8622  0.0311
   14WAT      O   53   2.326   2.842   1.417 -0.4206 -0.3992 -0.1287
   14WAT     H1   54   2.366   2.779   1.477  1.3907  1.8401  1.1460
   14WAT     H2   55   2.362   2.819   1.331 -1.2381 -2.1723 -0.0609
   15WAT      O   56   0.759   0.724   1.018  0.2590  0.1075  0.2040
   15WAT     H1   57   0.822   0.777   1.067  0.7481  0.3015 -0.6207
   15WAT     H2   58   0.698   0.693   1.084  1.0880  0.1096  0.9906
   16WAT      O   59   0.841   2.543   1.069  0.4289  0.3812  0.0830
   16WAT     H1   60   0.791   2.519   1.147 -0.0299 -0.1145 -0.3617
   16WAT     H2   61   0.898   2.468   1.053  0.6282  0.5429  0.0196
   17WAT      O   62   2.049   2.572   2.392  0.0363 -0.3297  0.0376
   17WAT     H1   63   1.959   2.544   2.409  0.2122 -1.7189 -1.1580
   17WAT     H2   64   2.041   2.664   2.368 -1.1908 -0.6642 -0.9287
   18WAT      O   65   1.141   1.622   0.849 -0.6522  0.5011 -0.0495
   18WAT     H1   66   1.047   1.620   0.866 -0.5586 -0.7877  0.4086
   18WAT     H2   67   1.156   1.549   0.789 -0.1902  1.7806 -1.5486
   19WAT      O   68   2.151   2.315   1.337 -0.2475 -0.2560 -0.3724
   19WAT     H1   69   2.191   2.333   1.422 -0.1206 -0.1544 -0.4534
   19WAT     H2   70   2.211   2.254   1.294  0.3094  0.6317 -0.8766
   20WAT      O   71   0.975   0.216   0.168  0.5737 -0.2858 -0.2269
   20WAT     H1   72   0.920   0.239   0.093  0.4131  0.1129  0.0099
   20WAT     H2   73   0.914   0.210   0.241  0.8745  0.3664  0.0791
   21WAT      O   74   2.054   0.268   0.442  0.0986  0.0871 -0.0049
   21WAT     H1   75   2.079   0.244   0.532  0.3591  0.2123 -0.0444
   21WAT     H2   76   2.137   0.289   0.399 -0.1100  0.9883  0.0060
   22WAT      O   77   0.012   0.520   1.498 -0.4708 -0.2335  0.2484
   22WAT     H1   78   0.039   0.598   1.450 -0.7892 -0.2714  0.0056
   22WAT     H2   79  -0.014   0.552   1.584  1.0585 -0.2816  0.7649
   23WAT      O   80   0.853   0.814   0.069 -0.4328  0.3100 -0.5620
   23WAT     H1   81   0.814   0.899   0.089 -0.7936 -0.1790  0.9172
   23WAT     H2   82   0.845   0.764   0.151  2.0615 -0.2825 -0.6175
   24WAT      O   83   1.845   1.476   0.418 -0.3463  0.4194  0.1339
   24WAT     H1   84   1.849   1.493   0.324  0.4551  0.1713  0.1139
   24WAT     H2   85   1.864   1.382   0.425  0.4087  0.6095  0.6050
   25WAT      O   86   2.490   0.349   0.282 -0.7736 -0.5862 -0.6480
   25WAT     H1   87   2.472   0.443   0.285  0.7358 -0.2758 -0.4591
   25WAT     H2   88   2.403   0.308   0.282 -1.4577  0.7972 -0.7820
   26WAT      O   89   1.932   0.586   2.019  0.2760  0.2509 -0.5186
   26WAT     H1   90   1.975   0.503   2.041 -0.9133 -0.8043 -1.9786
   26WAT     H2   91   1.905   0.622   2.104 -1.4074 -2.1211  0.0524
   27WAT      O   92   1.447   2.535   0.980 -0.3895  0.3423 -0.5649
   27WAT     H1   93   1.432   2.569   0.892 -2.5938 -0.4394 -0.5519
   27WAT     H2   94   1.470   2.443   0.966 -3.2339 -0.5002 -0.3199
   28WAT      O   95   0.369   0.941   1.565  0.7756 -0.0102 -0.1017
   28WAT     H1   96   0.347   0.961   1.656  1.0090 -0.8919  0.1641
   28WAT     H2   97   0.460   0.968   1.556  0.9731 -0.5816  0.1425
   29WAT      O   98   1.719   0.125   0.529 -0.1551  0.0955  0.0715
   29WAT     H1   99   1.801   0.081   0.508 -0.5173  0.5872 -2.7112
   29WAT     H2  100   1.745   0.214   0.553  0.1445  0.1977 -0.6195
   30WAT      O  101   0.949   1.231   1.405 -0.1755 -0.1091  0.3115
   30WAT     H1  102   1.014   1.296   1.432 -0.1470 -0.0104 -0.0003
   30WAT     H2  103   0.878   1.241   1.469  0.4964 -0.8348  1.2091
   31WAT      O  104   2.109   2.885   0.054 -0.0973  0.3137  0.4452
   31WAT     H1  105   2.042   2.930   0.105  0.5922  3.5175 -1.2343
   31WAT     H2  106   2.086   2.903  -0.037  2.0193 -0.0332 -0.2196
   32WAT      O  107   1.155   1.489   2.499  0.0651 -0.6194 -0.2578
   32WAT     H1  108   1.070   1.500   2.457  0.8122 -1.0249 -1.9274
   32WAT     H2  109   1.188   1.405   2.466  1.7557  0.2207 -0.8329
   33WAT      O  110   1.237   2.058   0.840  0.1975  0.3934 -0.5537
   33WAT     H1  111   1.303   2.068   0.908 -0.3333 -0.8654  0.1738
   33WAT     H2  112   1.153   2.058   0.886 -0.2252  0.4206 -1.2944
   34WAT      O  113   0.782   2.336   0.119  0.1001  0.2706  0.2939
   34WAT     H1  114   0.796   2.428   0.097 -0.9154  0.8472  1.8596
   34WAT     H2  115   0.838   2.321   0.196  0.0619 -0.3476  0.2069
   35WAT      O  116   1.440   1.580   2.421 -0.0314 -0.1397  0.0537
   35WAT     H1  117   1.349   1.557   2.439 -0.1364  0.0124 -0.2718
   35WAT     H2  118   1.479   1.500   2.388 -0.1368 -0.1107 -0.1383
   36WAT      O  119   2.288   1.736   2.278  0.2837 -0.1778 -0.0487
   36WAT     H1  120   2.283   1.792   2.201  0.6264  0.2799  0.2536
   36WAT     H2  121   2.236   1.782   2.344 -0.3230 -0.7542 -0.1096
   37WAT      O  122   1.360   1.777   1.199 -0.1510 -0.2322 -0.0783
   37WAT     H1  123   1.280   1.724   1.191  0.1041 -0.5676 -0.4800
   37WAT     H2  124   1.408   1.759   1.118 -1.5506  3.1551 -1.8984
   38WAT      O  125   1.740   1.063   0.926 -0.7863 -0.0196 -0.2303
   38WAT     H1  126   1.686   1.140   0.911  0.9162  1.3001  0.0591
   38WAT     H2  127   1.798   1.059   0.850 -0.0316 -0.2839  0.3452
   39WAT      O  128   0.487   0.696   0.270  0.3151 -0.4163 -0.4855
   39WAT     H1  129   0.562   0.718   0.324  0.0852  1.5662 -0.9166
   39WAT     H2  130   0.411   0.727   0.320 -0.0890 -0.8010 -0.8475
   40WAT      O  131   0.711   2.254   1.760  0.1990 -0.2119  0.9742
   40WAT     H1  132   0.639   2.222   1.705  0.0768  2.3847 -0.5325
   40WAT     H2  133   0.788   2.251   1.703  0.5562  0.2621  1.4196
   41WAT      O  134   2.617   2.548   1.081  0.0304 -0.4476 -0.2957
   41WAT     H1  135   2.560   2.498   1.139 -0.9925  0.4387 -0.4899
   41WAT     H2  136   2.702   2.549   1.125 -0.6652  0.0373  1.0925
   42WAT      O  137   0.996   1.344   1.758  0.1129  0.3909  0.1275
   42WAT     H1  138   1.048   1.348   1.839  1.1240  0.6686 -0.5143
   42WAT     H2  139   0.947   1.426   1.759 -0.6029 -0.0305  0.9143
   43WAT      O  140   1.655   2.769   0.865  0.6507  0.4566 -0.2900
   43WAT     H1  141   1.577   2.812   0.900  0.5640 -0.0443  0.1448
   43WAT     H2  142   1.710   2.754   0.942  0.3197 -0.9386 -0.2986
   44WAT      O  143   2.323   2.317   2.057 -0.7957  0.2747  0.8760
   44WAT     H1  144   2.243   2.301   2.007 -0.4732 -0.9964  0.7286
   44WAT     H2  145   2.305   2.397   2.107 -1.1244  1.6012 -1.2563
   45WAT      O  146   2.261   2.257   0.642  0.1396  0.3209 -0.2447
   45WAT     H1  147   2.256   2.232   0.550  0.1564  0.7101 -0.3535
   45WAT     H2  148   2.224   2.183   0.689  1.2001 -0.3792 -0.4807
   46WAT      O  149   2.442   1.241   2.191  0.4252 -0.1058  0.5265
   46WAT     H1  150   2.354   1.205   2.185 -0.7855  2.1531  2.9048
   46WAT     H2  151   2.434   1.315   2.251  3.6485  1.1938 -0.4274
   47WAT      O  152   0.664   1.926   1.925 -0.0035  0.6593  0.0308
   47WAT     H1  153   0.647   1.977   2.005 -0.8835 -0.4952  0.5989
   47WAT     H2  154   0.759   1.916   1.924  0.1012  1.4719  0.4292
   48WAT      O  155   0.038   0.507   0.423 -0.0956  0.7969 -0.0378
   48WAT     H1  156  -0.021   0.541   0.355  0.3880 -0.9069 -1.3694
   48WAT     H2  157   0.013   0.556   0.502 -1.1689  2.3327 -1.2479
   49WAT      O  158   1.353   1.600   1.547 -0.0666  0.0203  0.2838
   49WAT     H1  159   1.295   1.632   1.616 -0.3525 -0.7908  0.4287
   49WAT     H2  160   1.439   1.634   1.570 -0.0479 -0.7354  1.3572
   50WAT      O  161   2.127   0.668   1.846  0.0522  0.3395  0.1290
   50WAT     H1  162   2.189   0.601   1.874  0.2041 -0.0375 -1.0423
   50WAT     H2  163   2.047   0.650   1.896 -0.0357 -0.9873 -0.4483
   51WAT      O  164   0.767   0.135   1.958  0.0985 -0.0722 -0.3729
   51WAT     H1  165   0.724   0.056   1.991 -0.3005  0.5579  0.6300
   51WAT     H2  166   0.742   0.138   1.865 -0.3226 -0.8261 -0.2942
   52WAT      O  167   2.067   1.573   1.639  0.0094  0.2311 -0.0243
   52WAT     H1  168   2.134   1.639   1.658 -0.2267  0.9848 -1.6384
   52WAT     H2  169   1.988   1.606   1.682 -0.2340  1.2942 -1.2495
   53WAT      O  170   2.167   0.825   0.497 -0.3696 -0.1830  0.1102
   53WAT     H1  171   2.137   0.903   0.543  2.1589  1.0743 -0.1781
   53WAT     H2  172   2.247   0.800   0.542 -0.8236 -2.3002 -0.1749
   54WAT      O  173   1.694   0.274   1.721  0.2465 -0.1043 -0.3638
   54WAT     H1  174   1.664   0.204   1.663 -0.5519  1.0512 -1.3974
   54WAT     H2  175   1.613   0.317   1.750  0.6992  0.0908  0.6402
   55WAT      O  176   0.768   1.553   1.459  0.6873  0.1359 -0.0949
   55WAT     H1  177   0.734   1.487   1.398  3.0544 -0.7106 -0.6206
   55WAT     H2  178   0.740   1.522   1.545  1.6073 -1.5388 -0.3409
   56WAT      O  179   0.736   0.444   0.608  0.3981 -0.0408 -0.4066
   56WAT     H1  180   0.766   0.460   0.698  0.1626  2.1930 -0.6621
   56WAT     H2  181   0.643   0.467   0.609  0.1264 -1.0414 -1.0069
   57WAT      O  182   0.404   2.883   1.622 -0.3876  0.0042  0.0309
   57WAT     H1  183   0.366   2.896   1.709 -1.4862  0.3060 -0.4855
   57WAT     H2  184   0.345   2.929   1.563  0.7065  0.3598 -0.8150
   58WAT      O  185   0.018   2.050   0.027  0.7816  0.2841 -0.3051
   58WAT     H1  186   0.051   2.096  -0.050 -2.5273  2.6609 -0.5431
   58WAT     H2  187  -0.013   2.119   0.085 -1.9005 -1.5237  0.6294
   59WAT      O  188   2.539   1.019   0.520 -0.6585 -0.6503 -0.4740
   59WAT     H1  189   2.495   0.939   0.549 -0.9558 -0.3079  0.0294
   59WAT     H2  190   2.470   1.085   0.520 -0.0087  0.0590  0.9807
   60WAT      O  191   1.622   2.617   1.574 -0.0408  0.2455  0.5153
   60WAT     H1  192   1.586   2.530   1.555 -0.5357  0.6160 -0.3185
   60WAT     H2  193   1.630   2.620   1.669 -1.4503 -0.1613  0.6671
   61WAT      O  194   1.286   0.974   2.463  0.1364  0.0364  0.1258
   61WAT     H1  195   1.195   0.979   2.492 -0.1839  0.3191 -0.8812
   61WAT     H2  196   1.337   0.996   2.541 -0.5530 -2.0612  1.2448
   62WAT      O  197   0.640   1.976   1.633 -0.0686  0.7576 -0.6094
   62WAT     H1  198   0.547   1.957   1.620  0.4198 -0.7077 -2.4031
   62WAT     H2  199   0.661   1.936   1.717 -1.4408  2.8312  0.8167
   63WAT      O  200   1.395   2.723   0.067 -0.6363  0.0892  0.3134
   63WAT     H1  201   1.452   2.684   0.133  0.9781  0.8382 -0.5825
   63WAT     H2  202   1.356   2.799   0.109 -1.0987 -0.4935  0.9663
   64WAT      O  203   1.463   0.022   1.320  0.6055  0.6279 -0.8118
   64WAT     H1  204   1.432  -0.021   1.240 -1.2753  0.4417 -0.0254
   64WAT     H2  205   1.443   0.115   1.306 -1.4686  0.3727  0.1502
   65WAT      O  206   2.270   2.198   1.074  0.5114  0.4584  0.0639
   65WAT     H1  207   2.179   2.203   1.046  0.6089  0.5925 -0.2343
   65WAT     H2  208   2.316   2.158   1.000  0.6116 -0.0625  0.4065
   66WAT      O  209   2.534   1.921   2.104  0.0634 -0.7044 -0.1623
   66WAT     H1  210   2.590   1.861   2.153 -0.7167 -2.5499 -1.3927
   66WAT     H2  211   2.486   1.864   2.044 -1.4128  1.0795 -0.7588
   67WAT      O  212   0.303   2.622   2.165  0.2587 -0.4454  0.6707
   67WAT     H1  213   0.384   2.615   2.214  0.2372 -0.9148  0.6439
   67WAT     H2  214   0.250   2.684   2.215  1.4380  1.5656 -0.4348
   68WAT      O  215   2.383   0.094   2.393  0.2491 -0.1995  0.2791
   68WAT     H1  216   2.319   0.105   2.323  0.3894 -0.6481  0.0753
   68WAT     H2  217   2.337   0.121   2.473  0.4960  1.5944 -0.1482
   69WAT      O  218   1.827   0.712   2.237 -0.4651  0.0020 -0.0486
   69WAT     H1  219   1.836   0.719   2.332  2.1488  0.8029 -0.2746
   69WAT     H2  220   1.859   0.796   2.204 -0.2898 -0.6732 -1.6749
   70WAT      O  221   1.051   2.812   2.473 -0.1083  0.0995 -0.1061
   70WAT     H1  222   1.086   2.734   2.516  0.0496 -0.1491 -0.6729
   70WAT     H2  223   1.023   2.781   2.387  0.7142  0.8306 -0.6504
   71WAT      O  224   0.924   2.373   0.372 -0.0332 -0.0421  0.2113
   71WAT     H1  225   1.014   2.394   0.346 -0.5451 -0.0359 -1.7064
   71WAT     H2  226   0.917   2.407   0.461  1.5712  0.8116  0.0668
   72WAT      O  227   0.922   0.321   1.235 -0.0064  0.1952  0.4818
   72WAT     H1  228   1.012   0.318   1.204 -0.1247 -1.3367  0.2374
   72WAT     H2  229   0.882   0.240   1.203 -0.9213 -0.1083  2.2478
   73WAT      O  230   0.999   0.251   2.344 -0.3091 -0.3924  0.1861
   73WAT     H1  231   1.087   0.255   2.381 -1.0788 -1.6789  2.3375
   73WAT     H2  232   0.991   0.162   2.310 -0.4547  0.0296 -0.9059
   74WAT      O  233   0.012   2.781   1.892  0.4658  0.1167  0.8790
   74WAT     H1  234   0.081   2.716   1.906  0.6128 -0.1210 -0.7704
   74WAT     H2  235  -0.062   2.749   1.944 -0.1390 -2.4913 -1.3384
   75WAT      O  236   1.637   1.700   1.117  0.0824 -0.0815 -0.0979
   75WAT     H1  237   1.614   1.719   1.026  1.2107  2.0290 -0.0022
   75WAT     H2  238   1.732   1.696   1.118  0.0357 -2.6669  0.5804
   76WAT      O  239   1.442   0.029   0.909  0.9075  0.4438  0.3595
   76WAT     H1  240   1.381   0.037   0.836 -0.1240 -0.7262  1.0648
   76WAT     H2  241   1.448   0.118   0.945 -0.3729  0.5869  0.2636
   77WAT      O  242   0.874   0.742   1.350  0.1752  0.1780 -0.0829
   77WAT     H1  243   0.908   0.824   1.385  0.3726  0.8148 -1.6728
   77WAT     H2  244   0.779   0.749   1.361  0.0717  1.2261 -1.3812
   78WAT      O  245   2.658   1.684   2.210 -0.2581  0.1028  0.6787
   78WAT     H1  246   2.725   1.644   2.155 -1.4098  0.4115 -1.0460
   78WAT     H2  247   2.603   1.610   2.237 -2.3154  0.3204 -2.4073
   79WAT      O  248   2.681   2.258   1.394  0.3468  0.0855 -0.0132
   79WAT     H1  249   2.662   2.235   1.303  0.6422 -2.1009  0.4201
   79WAT     H2  250   2.657   2.180   1.444  0.7208  1.0363  1.7218
   80WAT      O  251   1.311   2.870   1.888 -0.1569  0.0061  0.0566
   80WAT     H1  252   1.256   2.941   1.921 -1.3704 -1.4751  1.4141
   80WAT     H2  253   1.257   2.826   1.823  1.1397  1.1510 -1.8722
   81WAT      O  254   1.190   2.433   0.248  0.4772 -0.0102 -0.0059
   81WAT     H1  255   1.185   2.346   0.288  0.8564 -0.3837 -0.7476
   81WAT     H2  256   1.278   2.464   0.268  0.8512 -0.4141 -0.9558
   82WAT      O  257   1.899   0.032   1.511  1.0323  0.4648  0.4198
   82WAT     H1  258   1.931  -0.058   1.515 -0.4304 -0.0940  0.0340
   82WAT     H2  259   1.807   0.027   1.537  0.3046  1.4772 -1.6785
   83WAT      O  260   0.023   0.001   1.420  0.1089 -0.0940 -0.3850
   83WAT     H1  261   0.110   0.005   1.461 -0.1601 -1.7968  0.4035
   83WAT     H2  262  -0.028   0.068   1.465  1.0587  1.1192 -1.0405
   84WAT      O  263   1.572   1.447   0.507  0.0023  0.4533 -0.2593
   84WAT     H1  264   1.515   1.468   0.434  1.7950 -0.6086 -2.0617
   84WAT     H2  265   1.661   1.460   0.474  0.8991 -0.4135  1.6082
   85WAT      O  266   2.266   1.112   1.627  0.2444  0.0243  0.4559
   85WAT     H1  267   2.223   1.193   1.655 -2.2340  0.7380 -4.3340
   85WAT     H2  268   2.215   1.043   1.670 -1.3941  1.0091  0.2190
   86WAT      O  269   2.299   1.876   0.100  0.0173 -0.3874  0.0381
   86WAT     H1  270   2.393   1.869   0.080 -0.1759 -0.1285 -1.0678
   86WAT     H2  271   2.296   1.911   0.188  0.9822  0.9399 -0.4166
   87WAT      O  272   1.055   2.785   1.138 -0.0945  0.3947 -0.1250
   87WAT     H1  273   1.004   2.707   1.118  0.0507  0.2246  0.1668
   87WAT     H2  274   1.146   2.754   1.144 -0.4147 -0.3768  4.5980
   88WAT      O  275   1.355   2.755   1.110 -0.3137  0.3583 -0.5605
   88WAT     H1  276   1.360   2.812   1.033 -0.4010 -0.9735 -1.5839
   88WAT     H2  277   1.396   2.673   1.082  0.7828  0.2446  1.2184
   89WAT      O  278   1.093   2.229   1.096 -0.4995 -0.0314  0.0767
   89WAT     H1  279   1.168   2.180   1.130  0.0820 -0.4973 -1.7374
   89WAT     H2  280   1.029   2.162   1.073 -1.1546  0.3170  0.8262
   90WAT      O  281   1.167   0.309   1.116 -0.8731  0.4547  0.9583
   90WAT     H1  282   1.258   0.328   1.139 -1.2874  3.1940  0.6638
   90WAT     H2  283   1.165   0.312   1.021 -0.9462 -1.6521  0.8409
   91WAT      O  284   2.514   1.534   1.238 -0.3561  0.0811 -0.3110
   91WAT     H1  285   2.520   1.512   1.331  2.3937  0.6136 -0.2748
   91WAT     H2  286   2.465   1.617   1.236  2.0432  1.6590  1.0591
   92WAT      O  287   1.669   1.991   0.415  0.4097 -0.6270  0.1062
   92WAT     H1  288   1.679   2.083   0.391 -0.5326 -0.3898  0.5696
   92WAT     H2  289   1.749   1.969   0.462  2.7778 -1.3390 -3.7550
   93WAT      O  290   1.790   2.487   0.819 -0.5491 -0.1957  0.5146
   93WAT     H1  291   1.743   2.570   0.830 -0.6768 -0.3494  1.1703
   93WAT     H2  292   1.787   2.446   0.906 -0.6681 -0.9788  0.1528
   94WAT      O  293   2.219   0.489   0.317  0.1750  0.1103  0.0864
   94WAT     H1  294   2.259   0.575   0.306 -1.0912  0.7473  0.2982
   94WAT     H2  295   2.127   0.502   0.297 -0.1714 -1.0449  0.8092
   95WAT      O  296   2.124   0.357   1.721 -0.1311 -0.5885  0.2093
   95WAT     H1  297   2.188   0.361   1.650 -1.0162 -0.3785 -0.6047
   95WAT     H2  298   2.053   0.414   1.692 -0.7006 -0.8303  1.0798
   96WAT      O  299   2.407   2.122   2.221 -0.3274  0.0340  0.9669
   96WAT     H1  300   2.367   2.182   2.159 -2.0169 -1.5913  0.4077
   96WAT     H2  301   2.442   2.051   2.167  0.3493 -0.2128  1.7097
   97WAT      O  302   1.683   0.558   1.886  0.0842 -0.3278 -0.6859
   97WAT     H1  303   1.771   0.551   1.925 -0.6007  1.5617  1.4267
   97WAT     H2  304   1.636   0.483   1.921 -1.2257  2.4715  4.5952
   98WAT      O  305   0.135   2.531   1.989 -1.0770 -0.1648  0.2766
   98WAT     H1  306   0.208   2.557   2.044 -2.0172 -0.5318  1.7486
   98WAT     H2  307   0.081   2.475   2.045 -2.0140 -0.6479 -1.0528
   99WAT      O  308   1.239   2.592   0.525  0.3048 -0.1836 -0.0260
   99WAT     H1  309   1.205   2.514   0.569 -1.5873  1.4117  1.4830
   99WAT     H2  310   1.163   2.631   0.483  1.6101 -0.2483 -2.7018
  100WAT      O  311   0.457   2.251   1.903 -0.1886 -0.0619  0.5214
  100WAT     H1  312   0.535   2.299   1.877 -0.7631  0.7052  0.1857
  100WAT     H2  313   0.461   2.248   1.999 -0.6575  1.5458  0.6104
  101WAT      O  314   0.064   0.691   2.192  0.5904 -0.2451  0.0928
  101WAT     H1  315   0.155   0.661   2.181  0.3492 -0.5482 -1.2824
  101WAT     H2  316   0.012   0.611   2.188  0.1932  0.0246 -0.1219
  102WAT      O  317   1.254   1.028   1.120 -0.1868 -0.1858  0.1119
  102WAT     H1  318   1.283   1.111   1.082 -0.2996 -0.1254  0.1592
  102WAT     H2  319   1.334   0.990   1.156 -0.1723  0.0011  0.2781
  103WAT      O  320   0.136   1.055   0.593 -0.1867 -0.2765  0.3277
  103WAT     H1  321   0.156   1.135   0.642 -0.3902  1.0500 -1.6550
  103WAT     H2  322   0.043   1.063   0.572 -0.0187 -0.6224 -0.5935
  104WAT      O  323   0.722   1.104   1.267  0.1200  0.5289  0.1996
  104WAT     H1  324   0.728   1.061   1.181 -0.3768 -0.5565  0.6873
  104WAT     H2  325   0.813   1.128   1.288  0.7310 -1.8827  0.6689
  105WAT      O  326   0.367   1.075   0.904  0.2381  0.2421  0.3282
  105WAT     H1  327   0.416   1.151   0.872  1.2761 -1.1164 -1.5647
  105WAT     H2  328   0.276   1.094   0.879  0.4454  0.9571  0.0670
  106WAT      O  329   0.954   1.906   1.940 -0.1764 -0.3634 -0.1715
  106WAT     H1  330   0.946   2.001   1.947 -1.1356 -0.2477 -2.0664
  106WAT     H2  331   0.983   1.890   1.850 -1.8959 -1.8873 -0.5404
  107WAT      O  332   0.579   1.668   1.952 -0.4116  0.0641  0.1373
  107WAT     H1  333   0.487   1.668   1.978 -1.1940 -0.8527 -2.3473
  107WAT     H2  334   0.605   1.760   1.959 -1.6806  0.4294  0.3634
  108WAT      O  335   1.644   0.097   0.193 -0.5666  0.0204  0.6228
  108WAT     H1  336   1.581   0.149   0.242 -2.3589 -1.2429 -0.2246
  108WAT     H2  337   1.594   0.062   0.119  1.1926 -0.8596 -0.2069
  109WAT      O  338   0.545   2.606   0.271  0.3269 -0.3761 -0.4169
  109WAT     H1  339   0.452   2.603   0.247  0.4489 -2.2284 -0.7985
  109WAT     H2  340   0.550   2.673   0.339 -0.9762  1.0383 -1.6250
  110WAT      O  341   2.365   0.538   2.402 -0.0953 -0.0569 -0.2053
  110WAT     H1  342   2.424   0.603   2.440  0.0642  0.4383 -1.2776
  110WAT     H2  343   2.356   0.564   2.311 -0.3991 -1.2824 -0.5414
  111WAT      O  344   1.640   0.687   1.650 -0.4806  0.0284 -0.0441
  111WAT     H1  345   1.630   0.632   1.728  0.1105  1.8518  1.3902
  111WAT     H2  346   1.580   0.760   1.665  1.5037  1.7501  0.0051
  112WAT      O  347   1.850   0.230   1.115  0.2893  0.2540 -0.4940
  112WAT     H1  348   1.828   0.194   1.030  1.3087  0.9694 -1.0768
  112WAT     H2  349   1.856   0.154   1.173  0.0144 -0.2696 -1.1410
  113WAT      O  350   0.762   2.121   0.453  0.1743  0.1518  0.5638
  113WAT     H1  351   0.758   2.214   0.428 -0.4853 -0.1967 -0.7010
  113WAT     H2  352   0.671   2.095   0.462  0.2648 -0.8766 -1.1142
  114WAT      O  353   1.459   2.419   2.160 -0.0458 -0.3301 -0.3196
  114WAT     H1  354   1.381   2.471   2.139 -0.6097 -0.9087  0.2810
  114WAT     H2  355   1.460   2.415   2.255  0.7999 -0.2170 -0.3232
  115WAT      O  356   0.495   2.001   0.700  0.8406 -0.0171  0.5583
  115WAT     H1  357   0.469   2.051   0.622 -1.0726  1.5164  2.0773
  115WAT     H2  358   0.476   2.060   0.773  1.8227 -1.7134  2.2412
  116WAT      O  359   0.935   0.340   1.936  0.1070  0.1776  0.2337
  116WAT     H1  360   0.913   0.396   1.861  1.2130  0.5347  0.1593
  116WAT     H2  361   0.872   0.268   1.931  0.4348 -0.0512 -1.3092
  117WAT      O  362   1.891   0.935   2.074  0.5697 -0.5346  0.8314
  117WAT     H1  363   1.880   0.910   1.982 -0.8062  0.4220  0.7147
  117WAT     H2  364   1.980   0.906   2.096  0.7507 -1.1948 -0.6550
  118WAT      O  365   1.361   2.297   1.511 -0.3044 -0.2206  0.1923
  118WAT     H1  366   1.293   2.233   1.490 -0.1228 -0.7384  1.1105
  118WAT     H2  367   1.319   2.357   1.573  0.1896 -0.8063  1.1121
  119WAT      O  368   1.655   2.742   0.322  0.0906  0.0774 -0.1810
  119WAT     H1  369   1.658   2.836   0.302  2.0214  0.1163  0.0704
  119WAT     H2  370   1.648   2.738   0.418 -0.7129 -0.0442 -0.2430
  120WAT      O  371   1.842   1.433   1.400 -0.2419 -0.5898  0.0196
  120WAT     H1  372   1.754   1.471   1.404 -1.0214 -2.3370  0.3037
  120WAT     H2  373   1.881   1.454   1.485 -0.3957  0.1750 -0.0971
  121WAT      O  374   0.814   2.854   0.712  0.4649  0.1501  0.3427
  121WAT     H1  375   0.775   2.780   0.759 -2.2601  0.3174 -1.4336
  121WAT     H2  376   0.776   2.931   0.755 -0.7513  0.3308 -0.9565
  122WAT      O  377   1.419   2.104   0.592  0.0437 -0.7520 -0.1504
  122WAT     H1  378   1.477   2.172   0.625  2.3576 -2.4179 -0.5131
  122WAT     H2  379   1.388   2.059   0.671  0.0590 -0.4896  0.0069
  123WAT      O  380   2.527   2.547   2.357 -0.0325  0.8525 -0.4393
  123WAT     H1  381   2.433   2.541   2.339 -0.2577 -1.5688  1.1254
  123WAT     H2  382   2.563   2.463   2.326  1.4431  1.2868  0.0004
  124WAT      O  383   1.165   2.781   1.652  0.2298 -0.2382 -0.1321
  124WAT     H1  384   1.073   2.769   1.677  1.0078  0.1315  3.4453
  124WAT     H2  385   1.172   2.874   1.632 -0.6135 -0.7087 -2.9708
  125WAT      O  386  -0.009   2.340   1.658  0.1733 -0.3574 -0.4617
  125WAT     H1  387   0.081   2.346   1.692  1.7153 -2.2170 -3.7757
  125WAT     H2  388  -0.001   2.359   1.565 -3.0807  0.2031 -0.7543
  126WAT      O  389   0.740   0.222   2.215  0.0729 -0.5112  0.1974
  126WAT     H1  390   0.812   0.180   2.263  0.5271  0.6738  0.5793
  126WAT     H2  391   0.773   0.231   2.126  0.7030  0.6859  0.5342
  127WAT      O  392   2.095   2.221   1.956  0.0895 -0.0128  0.3935
  127WAT     H1  393   2.083   2.141   1.905  1.6377  0.2366 -0.4152
  127WAT     H2  394   2.012   2.231   2.004 -2.0332  0.4788 -3.0575
  128WAT      O  395   2.565   1.061   2.350 -0.3413  0.4756 -0.7033
  128WAT     H1  396   2.555   1.139   2.295 -0.0948  0.7500 -0.3707
  128WAT     H2  397   2.660   1.055   2.365 -0.3345 -0.0626 -0.9714
  129WAT      O  398   1.778   1.522   2.053  0.4238 -0.2854  0.6677
  129WAT     H1  399   1.688   1.519   2.021  0.9415 -0.2872 -0.8343
  129WAT     H2  400   1.775   1.585   2.125 -0.7044 -0.0142  0.4090
  130WAT      O  401   1.473   2.328   1.271  0.0227  0.7267  0.2081
  130WAT     H1  402   1.467   2.424   1.270 -2.4937  0.6275  0.3912
  130WAT     H2  403   1.427   2.301   1.350 -0.3102 -0.6690 -0.4222
  131WAT      O  404   1.786   1.464   0.139  0.3332 -0.4356  0.1210
  131WAT     H1  405   1.721   1.533   0.124  0.2270 -1.1232 -3.5119
  131WAT     H2  406   1.867   1.499   0.102  0.9812 -1.2323  0.7377
  132WAT      O  407   1.497   0.982   0.217  0.1784  0.2021 -0.1007
  132WAT     H1  408   1.578   1.032   0.212  0.2515  0.1838  0.8123
  132WAT     H2  409   1.524   0.893   0.240 -0.0707  0.1179 -0.1213
  133WAT      O  410   0.786   0.252   0.380  0.6473  0.1777  0.9013
  133WAT     H1  411   0.730   0.207   0.316  0.2628 -0.6091  1.7695
  133WAT     H2  412   0.758   0.344   0.377  0.5084  0.1127  0.0845
  134WAT      O  413   0.482   1.362   0.869 -0.0042  0.1265  0.4321
  134WAT     H1  414   0.466   1.444   0.823  0.8851  0.1457  0.1238
  134WAT     H2  415   0.553   1.321   0.820  0.6260 -0.0933  1.4887
  135WAT      O  416   0.074   0.301   2.344  0.2266  0.3714 -0.2701
  135WAT     H1  417   0.034   0.341   2.422 -1.0152 -1.2154 -0.0402
  135WAT     H2  418   0.045   0.357   2.272  1.3878  1.8567  0.3625
  136WAT      O  419   0.599   1.275   0.644 -0.0536 -0.7415 -0.6397
  136WAT     H1  420   0.614   1.332   0.569 -0.3911  0.1009 -0.0795
  136WAT     H2  421   0.569   1.192   0.605 -0.8558 -0.1112 -1.4130
  137WAT      O  422   2.367   0.920   1.975  0.6010  0.0465 -0.0926
  137WAT     H1  423   2.279   0.923   1.937  0.3256  0.3664  0.5514
  137WAT     H2  424   2.417   0.866   1.914 -0.2012 -0.6766 -0.1314
  138WAT      O  425   0.284   1.313   1.114  0.1846  0.5068  0.2321
  138WAT     H1  426   0.241   1.388   1.075  0.0430 -0.0482 -0.7168
  138WAT     H2  427   0.352   1.289   1.051  1.0981  0.6319  1.1363
  139WAT      O  428   0.659   2.801   1.982  0.0609 -0.6163  0.0745
  139WAT     H1  429   0.666   2.765   1.893  0.0974 -0.3899 -0.0167
  139WAT     H2  430   0.632   2.728   2.036  0.4170 -0.8497 -0.0595
  140WAT      O  431   0.256   2.473   0.736  0.3899  0.3821 -0.5246
  140WAT     H1  432   0.344   2.441   0.719  0.1365  0.3784 -1.9147
  140WAT     H2  433   0.269   2.561   0.772  0.9534  1.2230 -2.6171
  141WAT      O  434   2.309   0.613   2.148 -0.1899 -0.0187 -0.3635
  141WAT     H1  435   2.299   0.699   2.107 -1.2064  0.5731  1.0355
  141WAT     H2  436   2.321   0.553   2.074 -0.1786  1.2162 -1.4108
  142WAT      O  437   2.577   2.511   0.135  0.0691 -0.7609 -0.0970
  142WAT     H1  438   2.529   2.517   0.052 -0.2083  0.7703  0.1437
  142WAT     H2  439   2.669   2.526   0.110  0.0780 -1.0091 -0.2158
  143WAT      O  440   2.258   1.234   1.339 -0.2590  0.2559 -0.3625
  143WAT     H1  441   2.272   1.147   1.303  1.3107  0.0431  0.6879
  143WAT     H2  442   2.297   1.231   1.426  0.0107  2.0761 -0.3782
  144WAT      O  443   2.100   1.181   0.405  0.0178 -0.4105  0.4708
  144WAT     H1  444   2.075   1.108   0.349 -0.0839 -0.2387  0.2895
  144WAT     H2  445   2.029   1.188   0.469 -0.4815  0.1729 -0.1357
  145WAT      O  446   1.366   1.721   2.162 -0.0442 -0.2472 -0.1147
  145WAT     H1  447   1.345   1.730   2.255 -1.7431 -0.5901 -0.4326
  145WAT     H2  448   1.408   1.635   2.155  2.4139  0.7997  0.6635
  146WAT      O  449   2.689   0.854   0.348 -0.0920 -0.2357 -0.8490
  146WAT     H1  450   2.638   0.878   0.270 -2.1061  1.7434  0.9443
  146WAT     H2  451   2.658   0.914   0.416  2.0653 -1.4440  1.3382
  147WAT      O  452   2.040   1.975   1.883 -0.0226  0.3460  0.3046
  147WAT     H1  453   1.964   1.958   1.827 -1.9076 -0.1851  2.8326
  147WAT     H2  454   2.039   1.903   1.946  1.3795  1.4353  1.6407
  148WAT      O  455   2.491   1.832   1.010 -0.3733  0.6077 -0.1067
  148WAT     H1  456   2.440   1.752   1.023  0.5469  0.0499  0.1339
  148WAT     H2  457   2.565   1.805   0.955 -1.0515  1.6994 -1.6327
  149WAT      O  458   1.282   2.193   0.382  0.0708  0.7686  0.0282
  149WAT     H1  459   1.351   2.170   0.445  0.9659  1.4394 -0.6721
  149WAT     H2  460   1.205   2.146   0.413  0.8914 -0.1730  0.7274
  150WAT      O  461   1.471   0.113   0.406 -0.2091  0.5918 -0.1150
  150WAT     H1  462   1.549   0.115   0.462 -0.9904  1.7026  0.9910
  150WAT     H2  463   1.398   0.116   0.467 -1.1124  0.6346 -1.1720
  151WAT      O  464   2.199   1.652   0.886 -0.2618  0.3687 -0.1999
  151WAT     H1  465   2.207   1.570   0.935 -2.5016  0.3104  0.1688
  151WAT     H2  466   2.279   1.655   0.832  1.1782 -0.6870  1.7288
  152WAT      O  467   1.403   1.351   0.702 -0.2126  0.0467  0.1663
  152WAT     H1  468   1.479   1.359   0.644 -0.9070  1.2641 -0.6042
  152WAT     H2  469   1.329   1.379   0.649 -0.8995  0.9593  1.5465
  153WAT      O  470   2.188   1.252   0.881 -0.0960 -1.0109  0.0552
  153WAT     H1  471   2.166   1.285   0.968  1.2727 -0.9278  0.4027
  153WAT     H2  472   2.283   1.236   0.886 -0.1039 -1.5254 -1.2494
  154WAT      O  473   0.899   2.679   2.280  0.3111  0.4175  0.2642
  154WAT     H1  474   0.858   2.620   2.344 -1.4016  0.9959 -0.2393
  154WAT     H2  475   0.869   2.647   2.195  0.8131  0.9519 -0.1239
  155WAT      O  476   0.521   0.004   2.218 -0.2398 -0.7508  0.3218
  155WAT     H1  477   0.544   0.010   2.125  1.5623 -1.8442  0.6434
  155WAT     H2  478   0.522   0.094   2.249 -1.4874 -0.3045 -0.8152
  156WAT      O  479   0.255   0.785   0.430  0.0030 -0.3104  0.2984
  156WAT     H1  480   0.219   0.825   0.510 -0.4420 -2.3308  1.1591
  156WAT     H2  481   0.179   0.767   0.375  0.0792 -0.9872  0.4091
  157WAT      O  482   0.133   0.970   1.157  0.5505 -0.6884 -0.4990
  157WAT     H1  483   0.098   0.884   1.180  0.2697 -0.3143  0.5653
  157WAT     H2  484   0.161   1.007   1.241  0.0828  0.5055 -0.8511
  158WAT      O  485   2.453   2.379   1.177 -0.4885  0.2196  0.0602
  158WAT     H1  486   2.392   2.326   1.125  0.0661 -1.1069  0.7188
  158WAT     H2  487   2.402   2.404   1.254 -0.4361 -0.2816  0.2652
  159WAT      O  488   1.066   1.357   1.093 -0.0270  0.0559 -0.3511
  159WAT     H1  489   1.041   1.272   1.130 -0.1837  0.6362  0.9421
  159WAT     H2  490   1.000   1.374   1.026 -0.4522 -0.4944 -0.0804
  160WAT      O  491   0.180   1.683   1.412 -0.6975  0.1702  0.1081
  160WAT     H1  492   0.143   1.618   1.471 -1.3618  0.9699  0.5923
  160WAT     H2  493   0.268   1.699   1.446 -0.5365 -0.4432 -0.0024
  161WAT      O  494   0.191   2.015   0.773 -0.1774  0.6512  0.1419
  161WAT     H1  495   0.142   2.085   0.731  0.8789  1.1919 -0.2190
  161WAT     H2  496   0.249   2.060   0.835  0.2801  0.0830  0.1363
  162WAT      O  497   2.375   2.059   0.862 -0.7235 -0.0360 -0.3931
  162WAT     H1  498   2.400   1.974   0.901  0.1634  1.1524  1.8173
  162WAT     H2  499   2.439   2.072   0.792  0.2079 -0.4705  0.3400
  163WAT      O  500   0.642   0.114   1.700 -0.3666 -0.1090 -0.0684
  163WAT     H1  501   0.664   0.159   1.619  1.8614 -1.9169 -0.5514
  163WAT     H2  502   0.577   0.049   1.674 -1.5150  0.9367  0.1100
  164WAT      O  503   2.274   2.132   2.456  0.1583  0.2707  0.5455
  164WAT     H1  504   2.328   2.123   2.378  1.5395  2.2406  1.2087
  164WAT     H2  505   2.278   2.046   2.498  0.9587 -0.2476 -0.5560
  165WAT      O  506   0.992   2.735   0.475 -0.1596 -0.0052 -0.2836
  165WAT     H1  507   0.985   2.830   0.482  0.4639  0.1523 -1.5367
  165WAT     H2  508   0.930   2.711   0.407 -1.9212 -0.7876  1.5009
  166WAT      O  509   0.066   1.503   0.477  0.5855  0.9350 -0.4217
  166WAT     H1  510   0.027   1.528   0.560 -0.4133 -1.6511 -0.0413
  166WAT     H2  511   0.008   1.540   0.410 -0.3559  0.3966  0.0896
  167WAT      O  512   0.390   0.508   1.972  0.4342  0.2062 -0.7498
  167WAT     H1  513   0.358   0.580   1.916  2.5744 -0.4853 -3.0484
  167WAT     H2  514   0.398   0.434   1.912  0.7304 -1.2447  1.0110
  168WAT      O  515   2.203   1.154   2.077 -0.1077 -0.1750  0.5475
  168WAT     H1  516   2.221   1.173   1.985 -0.3052 -2.3049  0.0142
  168WAT     H2  517   2.108   1.144   2.081 -0.0423 -0.6792  0.8628
  169WAT      O  518   2.436   0.377   0.945 -0.0802 -0.1812  0.0786
  169WAT     H1  519   2.439   0.377   1.040  2.1595 -2.5193  0.1142
  169WAT     H2  520   2.351   0.339   0.924 -0.3606 -0.1831  1.1530
  170WAT      O  521   2.387   0.748   0.648  0.5718  0.8148  0.3678
  170WAT     H1  522   2.364   0.707   0.732  0.6988 -0.2419 -0.0961
  170WAT     H2  523   2.467   0.704   0.621  1.3168  2.1216  0.3448
  171WAT      O  524   1.569   0.552   2.487  0.0233 -0.1940  0.2581
  171WAT     H1  525   1.511   0.624   2.461 -0.0552 -0.3679 -0.0533
  171WAT     H2  526   1.644   0.596   2.527  1.5032  0.2967 -2.7677
  172WAT      O  527   2.427   1.691   1.523  0.1444 -0.2020  0.0647
  172WAT     H1  528   2.347   1.707   1.573 -0.8488  0.5391 -1.6807
  172WAT     H2  529   2.422   1.599   1.497  0.5018 -0.4971  0.9993
  173WAT      O  530   0.093   1.619   1.135 -0.2623  0.0222 -0.6134
  173WAT     H1  531   0.125   1.633   1.223  1.0866  0.0547 -1.0903
  173WAT     H2  532   0.008   1.576   1.147  1.0661 -2.4526  0.6807
  174WAT      O  533   1.447   1.966   1.372 -0.0503  0.0295 -0.1014
  174WAT     H1  534   1.417   1.880   1.345 -1.3618  0.1511  0.8883
  174WAT     H2  535   1.405   1.982   1.456  0.9793  1.2138  0.2358
  175WAT      O  536   2.648   0.600   0.932 -0.5631 -0.0241 -0.1722
  175WAT     H1  537   2.627   0.683   0.975 -0.5892  1.0073 -2.0997
  175WAT     H2  538   2.577   0.541   0.959 -0.4142  0.4653  1.4136
  176WAT      O  539   1.758   2.110   1.044 -0.2845  0.3774 -0.1657
  176WAT     H1  540   1.708   2.052   0.986 -2.9527  3.4039 -1.1456
  176WAT     H2  541   1.737   2.078   1.132 -0.2670 -1.1545 -0.6770
  177WAT      O  542   0.005   2.277   0.192  0.0972 -0.7452  0.2517
  177WAT     H1  543   0.085   2.303   0.237  1.2135 -0.8300 -1.5858
  177WAT     H2  544  -0.044   2.358   0.181  0.7215 -0.3985 -0.0588
  178WAT      O  545   0.253   1.779   0.658 -0.3106 -0.0387  0.9568
  178WAT     H1  546   0.259   1.873   0.671  0.0086 -0.0912  1.2054
  178WAT     H2  547   0.167   1.755   0.694 -0.6869  0.2583  0.2541
  179WAT      O  548   2.648   2.035   1.108  0.4867 -0.2134  0.3835
  179WAT     H1  549   2.696   1.995   1.181  0.9845  1.4657  1.0449
  179WAT     H2  550   2.596   1.964   1.071  2.6555 -1.8921  0.3263
  180WAT      O  551   1.942   1.715   1.119 -0.1652  0.0067  0.1658
  180WAT     H1  552   1.947   1.621   1.106  0.5157  0.1727 -0.9380
  180WAT     H2  553   2.000   1.733   1.193  1.2024 -0.2423 -0.8125
  181WAT      O  554   2.102   0.856   2.199 -0.3275 -0.7765  0.0224
  181WAT     H1  555   2.181   0.906   2.222 -0.3104 -0.8547  0.1350
  181WAT     H2  556   2.118   0.769   2.236 -0.4569 -0.7991  0.0240
  182WAT      O  557   1.308   2.645   2.113 -0.0179  0.7518 -0.1192
  182WAT     H1  558   1.294   2.724   2.061 -0.7091  1.9538  1.8177
  182WAT     H2  559   1.361   2.674   2.187  0.9018 -0.9172 -0.0748
  183WAT      O  560   2.065   1.665   1.382 -0.0216 -0.1040 -0.2676
  183WAT     H1  561   2.080   1.617   1.464  1.7662  0.3856 -0.2566
  183WAT     H2  562   1.973   1.690   1.385  0.0089 -0.0396  1.6492
  184WAT      O  563   2.595   0.431   1.891  0.2956  0.5397 -0.1210
  184WAT     H1  564   2.664   0.429   1.958 -1.5099  1.2890  1.8588
  184WAT     H2  565   2.573   0.339   1.877  2.1180  0.2224 -1.3404
  185WAT      O  566   2.474   0.748   1.799 -0.4250 -0.1003  0.4469
  185WAT     H1  567   2.436   0.753   1.711 -0.6949 -1.2163  0.4842
  185WAT     H2  568   2.494   0.656   1.811  1.8255  0.3721  0.6604
  186WAT      O  569   1.124   1.926   0.626 -0.4183 -0.3532  0.3628
  186WAT     H1  570   1.114   2.020   0.638  1.8341  0.0672 -0.5417
  186WAT     H2  571   1.142   1.892   0.713 -1.7838 -0.0407  0.7772
  187WAT      O  572   1.828   0.985   1.359  0.2147 -0.1818 -0.5709
  187WAT     H1  573   1.791   0.936   1.286  0.3538 -2.0338  0.5491
  187WAT     H2  574   1.762   1.050   1.380 -1.2784 -1.7189 -0.2995
  188WAT      O  575   0.153   0.827   2.408  0.0386  0.9615  0.3329
  188WAT     H1  576   0.150   0.768   2.332 -2.1743  0.1794  0.9734
  188WAT     H2  577   0.222   0.790   2.463  1.5721  1.4454 -1.1425
  189WAT      O  578   0.440   2.587   1.868  0.5420  0.3104  0.3231
  189WAT     H1  579   0.379   2.660   1.861  0.9779  0.7402  0.8567
  189WAT     H2  580   0.442   2.566   1.962  1.6084  0.6594  0.3988
  190WAT      O  581   0.995   0.239   0.837  0.2194 -0.0332 -0.5573
  190WAT     H1  582   0.993   0.310   0.773 -0.4011  0.4105 -0.0612
  190WAT     H2  583   1.063   0.180   0.805  0.6548  0.7167 -1.0496
  191WAT      O  584   0.501   2.105   0.441  0.0554 -0.0455 -0.2428
  191WAT     H1  585   0.459   2.047   0.377  1.4535 -0.7541 -0.5594
  191WAT     H2  586   0.497   2.192   0.401 -0.1470 -0.2829 -0.7509
  192WAT      O  587   1.028   1.930   2.447 -0.1018 -0.4178  0.2090
  192WAT     H1  588   1.026   1.879   2.365  2.2677  0.1538 -0.2977
  192WAT     H2  589   0.967   2.002   2.433  0.4470 -0.1948 -1.1961
  193WAT      O  590   0.221   2.387   2.299  0.4898 -0.4040 -0.1074
  193WAT     H1  591   0.180   2.447   2.361  0.3507 -1.8535  1.2622
  193WAT     H2  592   0.267   2.444   2.237 -0.3694  1.1212  0.6072
  194WAT      O  593   1.866   0.730  -0.006 -0.4460  0.1271  0.0768
  194WAT     H1  594   1.961   0.727  -0.021 -0.3857  1.2766  0.1378
  194WAT     H2  595   1.852   0.675   0.071  0.3447  0.9351  0.8151
  195WAT      O  596   1.774   0.173   1.967 -0.0751 -0.3021 -0.0106
  195WAT     H1  597   1.739   0.204   1.883 -0.9616  2.2077  1.1694
  195WAT     H2  598   1.712   0.106   1.995 -0.5095 -0.2345 -0.7586
  196WAT      O  599   2.636   0.237   1.546 -0.5222  0.4405  0.2231
  196WAT     H1  600   2.690   0.315   1.537 -2.0745  1.5272 -0.2193
  196WAT     H2  601   2.640   0.216   1.640  0.0533  0.9576  0.3180
  197WAT      O  602   2.691   2.723   0.358 -0.2226 -0.2682 -0.1056
  197WAT     H1  603   2.633   2.647   0.345 -0.9180  0.1855  0.2528
  197WAT     H2  604   2.672   2.752   0.448  1.1453 -0.5819  0.3055
  198WAT      O  605   2.357   1.191   0.142 -0.4030  0.3520  1.1217
  198WAT     H1  606   2.288   1.220   0.202  0.0137  0.3641  1.5956
  198WAT     H2  607   2.417   1.265   0.136  0.2505 -0.1253  1.7249
  199WAT      O  608   2.471   1.489   0.971 -0.1433  0.1842 -0.4899
  199WAT     H1  609   2.492   1.498   1.064 -3.1880 -0.3361  0.3480
  199WAT     H2  610   2.454   1.395   0.959 -0.9511  0.4141 -1.2651
  200WAT      O  611   0.499   2.370   0.746 -0.1268  0.2556  0.3539
  200WAT     H1  612   0.551   2.386   0.825 -0.2484  2.1640  0.0891
  200WAT     H2  613   0.533   2.288   0.711 -1.0044 -1.4369  3.1235
  201WAT      O  614   1.487   0.971   1.246  0.6111  0.3366 -0.0410
  201WAT     H1  615   1.488   1.060   1.211 -0.5355  0.4861  0.2682
  201WAT     H2  616   1.568   0.931   1.212 -0.4736  0.4037 -3.0191
  202WAT      O  617   2.565   0.689   2.412  0.2898 -0.2029 -0.2526
  202WAT     H1  618   2.600   0.742   2.483 -0.6262 -0.8317  0.7094
  202WAT     H2  619   2.616   0.714   2.335  1.3113  0.4924  0.6233
  203WAT      O  620   1.980   1.099   1.096  0.1871 -0.0414 -0.2888
  203WAT     H1  621   1.896   1.070   1.061 -1.2319 -1.3947  3.7072
  203WAT     H2  622   1.970   1.193   1.109 -0.3357 -0.0388 -0.7008
  204WAT      O  623   0.265   2.551   1.226 -0.2184  0.4543  0.8061
  204WAT     H1  624   0.325   2.490   1.269  0.6820  2.1803  2.1276
  204WAT     H2  625   0.212   2.586   1.297  0.4586  2.4515  0.4046
  205WAT      O  626   0.986   0.664   1.891 -0.7352 -0.3508 -0.0576
  205WAT     H1  627   0.928   0.644   1.964 -0.5341 -1.1975 -0.1233
  205WAT     H2  628   0.933   0.645   1.813 -1.0438  0.8125 -0.1457
  206WAT      O  629   1.558   0.427   0.726  0.2541 -0.0512  0.4004
  206WAT     H1  630   1.507   0.422   0.645 -1.8758 -0.5220  1.6725
  206WAT     H2  631   1.611   0.506   0.717 -0.3170  0.1726 -1.2419
  207WAT      O  632   1.987   1.846   0.904 -0.4961 -0.2601  0.0861
  207WAT     H1  633   1.964   1.808   0.988 -1.1741 -1.4448 -0.6208
  207WAT     H2  634   2.036   1.778   0.859 -1.7448 -0.3523 -1.2088
  208WAT      O  635   0.296   1.538   2.310 -0.0063 -0.4426 -0.1228
  208WAT     H1  636   0.239   1.472   2.349 -0.1443  0.0777  0.5843
  208WAT     H2  637   0.378   1.531   2.360  0.4130 -0.9138 -0.8672
  209WAT      O  638   1.456   2.603   0.687  0.4219 -0.5020  0.2195
  209WAT     H1  639   1.516   2.668   0.650  0.4107  1.6746  3.5927
  209WAT     H2  640   1.375   2.615   0.639  0.5122  1.9077  0.5662
  210WAT      O  641   0.605   2.384   1.004 -0.1711  0.0211 -0.2700
  210WAT     H1  642   0.571   2.464   1.043 -1.0178 -0.1869 -0.5695
  210WAT     H2  643   0.660   2.345   1.072 -0.9167  0.1189  0.3991
  211WAT      O  644   1.304   1.094   1.751  0.3973  0.1485  0.4773
  211WAT     H1  645   1.337   1.156   1.686  0.2145  0.2179  0.4498
  211WAT     H2  646   1.357   1.110   1.829 -0.5311  1.2709  0.9027
  212WAT      O  647   1.928   1.271   2.311 -0.0688 -0.1026  0.5449
  212WAT     H1  648   1.998   1.297   2.370 -0.8206  0.2931  1.2832
  212WAT     H2  649   1.936   1.331   2.237 -0.6051  1.0115  1.3586
  213WAT      O  650   1.012   2.066   0.407  0.1407 -0.1349  0.3095
  213WAT     H1  651   0.918   2.085   0.414 -0.0389 -1.3032  1.3982
  213WAT     H2  652   1.027   1.998   0.472  1.4354 -1.1001 -0.9461
  214WAT      O  653   0.665   2.070   1.378  0.0879 -0.2776 -0.9261
  214WAT     H1  654   0.661   2.038   1.468 -0.6033  1.1033 -0.4388
  214WAT     H2  655   0.602   2.015   1.331  2.1505 -2.6275 -1.1701
  215WAT      O  656   2.661   2.797   0.620  0.2129  0.0348  0.1711
  215WAT     H1  657   2.591   2.798   0.686 -0.5437  1.2833 -0.6020
  215WAT     H2  658   2.741   2.812   0.669 -0.3254  0.8389  0.8429
  216WAT      O  659   2.272   0.151   0.238  0.3340 -0.2679  0.5895
  216WAT     H1  660   2.199   0.089   0.232 -0.0914  0.3290 -0.8286
  216WAT     H2  661   2.343   0.100   0.277  0.0192 -1.7082 -0.6013
  217WAT      O  662   1.227   1.244   2.355  0.3520  0.1463 -0.4645
  217WAT     H1  663   1.253   1.175   2.415  0.4716  0.1660 -0.4929
  217WAT     H2  664   1.254   1.212   2.269  0.4872  0.2655 -0.4679
  218WAT      O  665   2.011   2.823   1.252 -0.3137 -0.3088  0.0815
  218WAT     H1  666   2.055   2.740   1.271 -1.2892 -0.4328  2.1525
  218WAT     H2  667   2.057   2.887   1.305 -1.1604 -0.0317  0.5103
  219WAT      O  668   2.586   2.821   2.414 -1.1394  0.1884  0.2717
  219WAT     H1  669   2.563   2.728   2.406 -2.2711  0.3256  1.6161
  219WAT     H2  670   2.507   2.868   2.385 -0.4642  0.7601 -0.7199
  220WAT      O  671   1.422   2.623   1.365 -0.0972 -0.5575 -0.4023
  220WAT     H1  672   1.433   2.689   1.296 -0.3837  0.1955  0.2513
  220WAT     H2  673   1.458   2.664   1.444 -0.7903 -0.9607  0.1412
  221WAT      O  674   1.596   0.742   2.084 -0.4216  0.3094  0.0301
  221WAT     H1  675   1.675   0.749   2.136  0.2881  1.6713 -1.1850
  221WAT     H2  676   1.619   0.683   2.012 -1.6353 -2.2333  1.5770
  222WAT      O  677   1.087   2.313   2.431 -0.2495 -0.1685 -0.5207
  222WAT     H1  678   1.156   2.279   2.489 -0.3703 -0.4306 -0.5327
  222WAT     H2  679   1.094   2.408   2.440 -0.0289 -0.1991 -0.3527
  223WAT      O  680   0.842   2.492   0.611  0.5649  0.1239  0.2494
  223WAT     H1  681   0.791   2.522   0.686 -0.5961  1.4108 -1.0058
  223WAT     H2  682   0.875   2.572   0.571  0.3833 -0.4877 -1.1642
  224WAT      O  683   1.810   0.609   0.246 -0.6383 -0.2327  0.3288
  224WAT     H1  684   1.862   0.541   0.203  0.6409  1.8666 -1.6080
  224WAT     H2  685   1.852   0.620   0.332  0.4906 -0.4050 -0.1803
  225WAT      O  686   2.111   0.910   1.757  0.1412 -0.2259 -0.7027
  225WAT     H1  687   2.128   0.818   1.774 -0.3974 -0.7041 -2.6158
  225WAT     H2  688   2.025   0.912   1.715  0.3699  1.0879 -1.1611
  226WAT      O  689   1.928   0.105   0.222  0.9184  0.0766 -0.3300
  226WAT     H1  690   1.948   0.111   0.316  0.4148  0.2759 -0.2340
  226WAT     H2  691   1.840   0.068   0.219  1.4857 -1.2823 -0.7644
  227WAT      O  692   2.397   2.745   1.764  0.5009  0.6222 -0.2793
  227WAT     H1  693   2.440   2.786   1.840 -1.7351  0.8073  0.9754
  227WAT     H2  694   2.433   2.656   1.762  1.2343  0.8791  0.4550
  228WAT      O  695   0.502   1.023   2.429 -0.3580  0.3583 -0.1723
  228WAT     H1  696   0.555   0.957   2.384 -0.3809 -1.1677  1.8848
  228WAT     H2  697   0.460   1.072   2.359  2.4702  0.5728 -1.8563
  229WAT      O  698   0.446   1.101   0.474  0.0672  0.4256  0.2181
  229WAT     H1  699   0.490   1.115   0.390  1.5141 -0.6746  0.7462
  229WAT     H2  700   0.356   1.080   0.451  0.3840  0.3696 -1.0531
  230WAT      O  701   0.727   0.254   1.456 -0.4005 -0.6163  0.2372
  230WAT     H1  702   0.727   0.167   1.415 -0.8581 -0.2570 -0.5418
  230WAT     H2  703   0.771   0.310   1.393 -0.2830 -0.2409  0.6536
  231WAT      O  704   1.795   2.494   0.311 -0.0678  0.3314 -0.6761
  231WAT     H1  705   1.869   2.515   0.368  0.4671  1.1912 -1.6438
  231WAT     H2  706   1.739   2.572   0.314  0.6431  0.9518 -2.3228
  232WAT      O  707   2.430   2.529   1.424  0.6735  0.1241 -0.1296
  232WAT     H1  708   2.520   2.504   1.446  0.4019  1.1257  2.4717
  232WAT     H2  709   2.381   2.517   1.505 -1.5399 -0.1919 -1.4283
  233WAT      O  710   0.249   0.574   0.933  0.2898 -0.4603 -0.3104
  233WAT     H1  711   0.154   0.587   0.934  0.3878  0.2393  0.2556
  233WAT     H2  712   0.261   0.481   0.953 -0.3177 -0.8714 -1.7230
  234WAT      O  713   1.054   1.193   2.118  0.2725  0.0747 -0.7631
  234WAT     H1  714   1.067   1.100   2.103  1.3700  0.0339  0.2739
  234WAT     H2  715   0.980   1.198   2.179  1.8636 -0.3071  1.2880
  235WAT      O  716   0.932   0.475   2.188 -0.1079 -0.2486 -0.1022
  235WAT     H1  717   0.890   0.437   2.111  0.8191 -0.2482 -0.6271
  235WAT     H2  718   0.955   0.399   2.243  2.6977 -0.6264 -1.6386
  236WAT      O  719   1.557   0.367   2.067  0.3597 -0.0649  0.0982
  236WAT     H1  720   1.541   0.334   2.156  0.4529 -0.1772  0.0734
  236WAT     H2  721   1.618   0.305   2.029 -0.5191 -0.6325 -0.4221
  237WAT      O  722   1.296   0.087   0.661 -0.0904 -0.2797 -0.7176
  237WAT     H1  723   1.245   0.140   0.600 -1.6313  1.0836  1.5679
  237WAT     H2  724   1.234   0.021   0.693  0.1136  0.1625  0.6663
  238WAT      O  725   2.219   0.330   2.488 -0.0190  0.0153 -0.2140
  238WAT     H1  726   2.266   0.397   2.437  0.4226  0.1583  0.3641
  238WAT     H2  727   2.277   0.313   2.562 -0.6676 -0.1688  0.2516
  239WAT      O  728   1.937   1.333   1.943 -0.5601  0.2315  0.0969
  239WAT     H1  729   1.883   1.406   1.972 -0.3743  0.1935  0.5476
  239WAT     H2  730   1.878   1.278   1.892 -0.3290  1.5336 -1.6809
  240WAT      O  731   2.090   1.654   1.951 -0.4411 -0.3717 -0.7407
  240WAT     H1  732   2.062   1.588   2.015  1.2965 -1.0625 -0.6235
  240WAT     H2  733   2.037   1.637   1.873 -1.0409 -0.9424 -0.2162
  241WAT      O  734   2.089   0.850   1.334 -0.2135 -0.3351  0.1280
  241WAT     H1  735   2.069   0.941   1.358  1.3017 -0.0422  0.4387
  241WAT     H2  736   2.005   0.811   1.312 -1.0134  0.8852  0.9064
  242WAT      O  737   0.280   0.630   1.234 -0.4398 -0.0069 -0.0836
  242WAT     H1  738   0.300   0.693   1.164 -0.3655  0.3159  0.2287
  242WAT     H2  739   0.245   0.683   1.305 -0.8705 -0.3789 -0.0079
  243WAT      O  740   1.396   1.322   0.207 -0.2835 -0.5401 -0.2170
  243WAT     H1  741   1.308   1.343   0.176 -0.3666  0.2494  0.5449
  243WAT     H2  742   1.384   1.245   0.262 -0.6053 -0.0032  0.4699
  244WAT      O  743   1.785   1.737   1.408 -0.2888  0.1198  0.2787
  244WAT     H1  744   1.756   1.798   1.476 -1.8917 -1.3347  0.9850
  244WAT     H2  745   1.704   1.698   1.375  0.5852 -0.4561 -1.2902
  245WAT      O  746   2.246   0.130   0.942  0.0210  0.4512 -0.0058
  245WAT     H1  747   2.182   0.175   0.997  0.2765  0.6962  0.0958
  245WAT     H2  748   2.222   0.037   0.948 -1.6409  0.7283 -1.7068
  246WAT      O  749   1.565   1.763   1.637 -0.2951  0.4608  0.2539
  246WAT     H1  750   1.486   1.817   1.634 -0.1328  0.7653  1.1077
  246WAT     H2  751   1.637   1.827   1.639  0.0105  0.1844 -1.0782
  247WAT      O  752   0.486   2.702   2.360 -0.3341 -0.4945  0.3336
  247WAT     H1  753   0.487   2.783   2.308 -0.9037 -1.0136 -0.5094
  247WAT     H2  754   0.451   2.730   2.445  1.9427  0.6383  0.9819
  248WAT      O  755   0.915   1.264   2.346 -0.1095  0.9397  0.4927
  248WAT     H1  756   1.010   1.253   2.350 -0.1948 -0.0564  0.1102
  248WAT     H2  757   0.883   1.219   2.424 -0.3595 -0.1696 -0.2234
  249WAT      O  758   1.045   0.952   1.475 -0.6869  0.3218 -0.3269
  249WAT     H1  759   1.027   1.044   1.454 -2.3382  0.4213  1.1853
  249WAT     H2  760   1.140   0.944   1.471 -0.4846  2.1872 -0.2070
  250WAT      O  761   0.066   1.086   0.902 -0.1883 -0.6002 -0.2115
  250WAT     H1  762   0.090   1.178   0.900  1.3319 -0.9567  0.1872
  250WAT     H2  763   0.067   1.063   0.995 -1.9420 -0.7080 -0.1876
  251WAT      O  764   0.633   2.589   2.146  0.1131 -0.0861 -0.0774
  251WAT     H1  765   0.673   2.512   2.184  1.3196  1.5348  2.1748
  251WAT     H2  766   0.593   2.635   2.220  0.4583  2.0366 -1.1204
  252WAT      O  767   1.927   1.386   1.141 -0.0501  0.0982 -0.5618
  252WAT     H1  768   2.021   1.403   1.144 -0.0759  0.2721 -0.7503
  252WAT     H2  769   1.898   1.400   1.231 -0.1168  1.3152 -0.7567
  253WAT      O  770   0.258   2.214   1.461  0.4847  0.0655 -0.1818
  253WAT     H1  771   0.186   2.265   1.423 -1.6154 -2.1479  0.5654
  253WAT     H2  772   0.282   2.260   1.541 -0.5711  0.4919 -0.1071
  254WAT      O  773   0.432   0.302   1.813 -0.4500  0.6081 -0.2540
  254WAT     H1  774   0.413   0.326   1.722  2.9473  0.8160 -1.0380
  254WAT     H2  775   0.501   0.237   1.808 -2.2893 -1.8274  2.2125
  255WAT      O  776   0.350   0.367   1.569  0.0911 -0.2689 -0.5122
  255WAT     H1  777   0.311   0.355   1.482 -1.9167  0.1203  0.2845
  255WAT     H2  778   0.278   0.399   1.623  1.4309 -0.0142  1.1904
  256WAT      O  779   1.989   1.378   0.723  0.2925 -0.0694 -0.1156
  256WAT     H1  780   1.946   1.296   0.701 -0.3448 -0.2676  1.6586
  256WAT     H2  781   2.069   1.352   0.769  0.4871  0.3013 -0.2401
  257WAT      O  782   2.635   0.627   0.652  0.4280 -0.1811  0.0605
  257WAT     H1  783   2.679   0.710   0.669  3.0094 -1.4635  0.1007
  257WAT     H2  784   2.621   0.588   0.738 -0.0066 -0.1794 -0.0048
  258WAT      O  785   1.913   1.648   0.643 -0.3917 -0.4595  0.3038
  258WAT     H1  786   1.895   1.601   0.562 -1.2009 -0.0011  0.2095
  258WAT     H2  787   1.955   1.583   0.699  0.5719 -0.6671 -0.6209
  259WAT      O  788   0.304   2.043   1.870  0.4108 -0.2050 -0.0766
  259WAT     H1  789   0.310   2.019   1.962  0.1238 -0.0541 -0.0159
  259WAT     H2  790   0.351   2.126   1.863  0.6472 -0.3412 -0.1156
  260WAT      O  791   0.283   0.116   2.371 -0.5424 -0.2042 -0.5312
  260WAT     H1  792   0.327   0.120   2.286  1.6391  1.0633  0.5769
  260WAT     H2  793   0.234   0.198   2.377 -1.4357 -0.6987 -0.9150
  261WAT      O  794   1.968   0.978   0.252 -0.3306 -0.2769  0.0537
  261WAT     H1  795   1.894   1.001   0.195  0.0586 -0.5851 -0.5979
  261WAT     H2  796   2.007   0.901   0.209  1.2213  0.7265 -0.4012
  262WAT      O  797   0.995   0.952   2.377 -0.3164  0.1485  0.2547
  262WAT     H1  798   0.964   0.932   2.289 -0.6252 -1.9292  0.7707
  262WAT     H2  799   0.926   0.917   2.434 -0.0939  1.4057  1.3290
  263WAT      O  800   0.062   1.471   1.984  0.1008  0.8916 -0.7798
  263WAT     H1  801   0.030   1.508   1.902 -1.3042 -2.1678 -1.7579
  263WAT     H2  802   0.014   1.389   1.994 -0.4838  1.5465  3.6502
  264WAT      O  803   2.150   2.272   1.671 -0.0054 -0.3659 -0.7197
  264WAT     H1  804   2.155   2.294   1.764 -0.7294 -0.0182 -0.7585
  264WAT     H2  805   2.241   2.265   1.643  0.2176 -0.0823 -0.0775
  265WAT      O  806   0.257   2.086   1.147 -0.1038  0.2006 -0.0189
  265WAT     H1  807   0.201   2.056   1.218  2.4016  0.6050  2.3120
  265WAT     H2  808   0.238   2.180   1.138 -0.0924  0.2457  0.4462
  266WAT      O  809   2.162   1.319   1.786 -0.1956 -0.0425 -0.0870
  266WAT     H1  810   2.105   1.321   1.863  1.0547 -1.4376  0.9281
  266WAT     H2  811   2.128   1.389   1.729 -0.7109  1.5481  2.0439
  267WAT      O  812   0.574   0.728   1.231 -0.1885  0.0850  0.0818
  267WAT     H1  813   0.573   0.762   1.320  0.0791 -0.3291  0.2441
  267WAT     H2  814   0.503   0.776   1.187 -0.7630 -0.1856  0.6944
  268WAT      O  815   0.159   2.779   2.320  0.8929  0.0942  0.3347
  268WAT     H1  816   0.069   2.802   2.342  0.6123  0.9789 -1.5328
  268WAT     H2  817   0.210   2.857   2.342  1.3647 -0.6851  2.1314
  269WAT      O  818   0.485   0.506   0.605  0.6001  0.1848  0.3357
  269WAT     H1  819   0.463   0.559   0.681  2.4353  1.4920  0.0230
  269WAT     H2  820   0.401   0.477   0.570 -0.2868 -0.6113  2.9433
  270WAT      O  821   0.154   1.441   1.518  0.0153 -0.2069  0.7182
  270WAT     H1  822   0.083   1.407   1.571 -0.0564  0.8939  1.3544
  270WAT     H2  823   0.229   1.386   1.541 -0.2790 -0.4435  1.1266
  271WAT      O  824   1.489   0.845   0.529  0.2825  0.1151  0.1048
  271WAT     H1  825   1.512   0.780   0.463  0.0287 -0.6429  0.7426
  271WAT     H2  826   1.396   0.829   0.546  0.5407 -0.2916  1.2587
  272WAT      O  827   1.509   1.979   2.379  0.0145 -0.1502 -0.6212
  272WAT     H1  828   1.483   1.963   2.470 -2.2258 -0.2293 -1.2186
  272WAT     H2  829   1.598   2.013   2.385  1.1727 -3.1482  1.3968
  273WAT      O  830   2.312   1.500   0.323  0.2757 -0.2011  0.1454
  273WAT     H1  831   2.254   1.542   0.260  1.5707 -0.5891 -1.3527
  273WAT     H2  832   2.345   1.571   0.378 -0.4387  0.2052  0.0578
  274WAT      O  833   2.546   1.802   2.479 -0.4356 -0.5635 -0.1197
  274WAT     H1  834   2.580   1.890   2.497 -3.2640  0.8812 -1.1826
  274WAT     H2  835   2.596   1.773   2.403  0.2631  0.2978 -0.0131
  275WAT      O  836   0.318   1.618   2.041  0.2636 -0.9235 -0.5477
  275WAT     H1  837   0.315   1.609   2.136 -1.5112  0.3490 -0.4377
  275WAT     H2  838   0.256   1.554   2.008  0.5965 -1.1024 -0.8417
  276WAT      O  839   2.684   1.628   1.763  0.2208  0.1418  0.3188
  276WAT     H1  840   2.695   1.715   1.800 -0.5989  0.0698  0.7512
  276WAT     H2  841   2.650   1.643   1.675 -1.8906  0.2513  1.0968
  277WAT      O  842   1.000   2.366   1.308 -0.2769 -0.0369 -0.1675
  277WAT     H1  843   1.057   2.335   1.238  1.1221  0.3265  0.7504
  277WAT     H2  844   1.057   2.421   1.362 -0.4546 -2.5474  2.8616
  278WAT      O  845   0.496   2.241   2.180 -0.1838  0.4249 -0.0236
  278WAT     H1  846   0.516   2.295   2.256 -1.1671  0.9782 -0.1272
  278WAT     H2  847   0.562   2.172   2.180  1.4569  1.9095 -0.1804
  279WAT      O  848   1.453   1.968   0.167  0.1671 -0.6158  0.1227
  279WAT     H1  849   1.360   1.987   0.185 -0.6773 -2.7722 -1.5092
  279WAT     H2  850   1.481   1.914   0.240  0.3874  0.5937  0.9684
  280WAT      O  851   2.382   0.393   1.544  0.4304  0.6133 -0.6617
  280WAT     H1  852   2.340   0.354   1.468 -0.7804  0.0851  0.2385
  280WAT     H2  853   2.472   0.360   1.542  0.4659  0.7501 -1.9396
  281WAT      O  854   0.782   2.309   2.021  0.0599  0.2530  0.1651
  281WAT     H1  855   0.867   2.282   1.988  1.1800  2.8307  0.7260
  281WAT     H2  856   0.723   2.301   1.945  0.8344 -1.2142 -0.3160
  282WAT      O  857   2.629   0.157   1.844  0.4249 -0.4143  0.3514
  282WAT     H1  858   2.656   0.065   1.846  1.3131 -0.3230 -2.7058
  282WAT     H2  859   2.537   0.155   1.870  0.1874 -2.3008 -0.4286
  283WAT      O  860   0.945   2.937   2.152 -0.5848  0.3809 -0.2358
  283WAT     H1  861   0.887   2.900   2.084  0.3584 -0.4503 -0.6164
  283WAT     H2  862   0.957   2.865   2.214  1.2453  0.0088 -0.9644
  284WAT      O  863   0.664   0.687   2.033  0.4837 -0.2854 -0.1084
  284WAT     H1  864   0.596   0.633   2.074  0.9958 -1.8861 -1.2902
  284WAT     H2  865   0.647   0.681   1.939  0.7719  1.3718 -0.2998
  285WAT      O  866   2.691   2.619   1.381 -0.4115 -0.0201 -0.1461
  285WAT     H1  867   2.609   2.626   1.332  0.0590  0.1056 -0.9401
  285WAT     H2  868   2.720   2.709   1.394  0.6906 -0.0850 -1.7994
  286WAT      O  869   1.259   0.611   1.775  0.7020 -0.6508 -0.0124
  286WAT     H1  870   1.218   0.547   1.718  1.5000 -1.4711  0.3015
  286WAT     H2  871   1.198   0.622   1.848  0.3833 -0.7530 -0.2655
  287WAT      O  872   1.742   2.713   2.109 -0.4149  0.5067 -0.3014
  287WAT     H1  873   1.775   2.775   2.044 -0.9781  1.9993  0.7952
  287WAT     H2  874   1.647   2.723   2.107 -0.5158 -0.2819 -0.0469
  288WAT      O  875   1.576   1.614   0.154 -0.0103  0.0506 -0.3555
  288WAT     H1  876   1.511   1.573   0.211 -0.7080 -1.8353 -2.3706
  288WAT     H2  877   1.533   1.619   0.068  1.2138  2.2133 -0.9398
  289WAT      O  878   0.665   2.642   1.741 -0.2065  0.2080  0.1489
  289WAT     H1  879   0.690   2.563   1.694 -0.3686  1.5665 -2.4301
  289WAT     H2  880   0.574   2.629   1.765 -1.0210  0.4697 -2.4593
  290WAT      O  881   2.119   2.574   1.331  0.5109  0.0125  0.0791
  290WAT     H1  882   2.108   2.480   1.319  1.0960  0.0527 -0.8438
  290WAT     H2  883   2.213   2.586   1.342  0.8108  0.7652 -2.6558
  291WAT      O  884   2.304   0.718   0.938 -0.1064  0.0664 -0.5480
  291WAT     H1  885   2.219   0.762   0.945 -0.5352 -0.8318  0.0456
  291WAT     H2  886   2.360   0.764   1.001 -0.4982 -0.1291 -0.0552
  292WAT      O  887   1.828   0.361   2.327  0.0717 -0.2410 -0.1281
  292WAT     H1  888   1.780   0.285   2.359  0.4906  0.2530  1.8023
  292WAT     H2  889   1.779   0.436   2.359 -0.1279  0.3405 -1.7005
  293WAT      O  890   1.497   0.287   0.970  0.1317 -0.0903  0.3618
  293WAT     H1  891   1.543   0.338   1.037 -0.2039  0.8580 -0.1117
  293WAT     H2  892   1.547   0.303   0.890  0.0422 -0.5466  0.2131
  294WAT      O  893   1.739   1.094   2.251 -0.5452 -0.5623  0.0423
  294WAT     H1  894   1.777   1.039   2.183 -0.8559  0.3200 -0.8781
  294WAT     H2  895   1.809   1.157   2.273 -0.7473 -0.2765 -0.1229
  295WAT      O  896   2.232   2.763   2.065 -0.0792 -0.1950  0.0778
  295WAT     H1  897   2.170   2.802   2.127 -0.0472  0.0548 -0.0438
  295WAT     H2  898   2.226   2.819   1.988  1.1512  0.5515  0.4848
  296WAT      O  899   1.704   2.529   1.813 -0.1532 -0.0194  0.0860
  296WAT     H1  900   1.703   2.495   1.903 -3.4535  0.1720  0.2440
  296WAT     H2  901   1.773   2.479   1.769  0.1099 -1.6288  2.1654
  297WAT      O  902   2.393   2.259   1.599 -0.1084  0.1593  0.0521
  297WAT     H1  903   2.480   2.288   1.628 -0.0373  0.2837 -0.2820
  297WAT     H2  904   2.409   2.211   1.518 -0.2291 -0.8118  0.5938
  298WAT      O  905   1.207   1.349   0.507 -0.0364  0.5327 -0.3732
  298WAT     H1  906   1.202   1.254   0.520 -1.8699  0.7358  0.6698
  298WAT     H2  907   1.155   1.365   0.428 -1.2010  0.8310  0.4364
  299WAT      O  908   1.629   0.412   1.183  0.0579  0.2452  0.2048
  299WAT     H1  909   1.645   0.470   1.258  1.6966  0.6823 -0.4273
  299WAT     H2  910   1.709   0.360   1.176  0.1307  0.5272 -1.5036
  300WAT      O  911   1.221   0.291   0.104 -0.2341  0.1390  0.3091
  300WAT     H1  912   1.130   0.262   0.110 -0.2552 -0.1468 -1.0323
  300WAT     H2  913   1.216   0.383   0.078 -0.1490  0.1505  0.3317
  301WAT      O  914   0.997   0.684   0.446 -0.0253  0.2473  0.3308
  301WAT     H1  915   0.948   0.654   0.369 -0.5917 -0.4812  0.9499
  301WAT     H2  916   1.068   0.620   0.455 -2.5873 -2.5921  3.0420
  302WAT      O  917   2.541   1.130   1.439 -0.3353  0.0435 -0.4448
  302WAT     H1  918   2.475   1.061   1.431  0.0123 -0.1422 -1.9723
  302WAT     H2  919   2.615   1.087   1.482 -0.3677 -0.3566 -0.7826
  303WAT      O  920   0.265   2.643   0.297 -0.2788 -0.3543  0.3096
  303WAT     H1  921   0.220   2.726   0.314 -1.1501 -0.7480 -0.0431
  303WAT     H2  922   0.205   2.576   0.329 -0.4983 -0.9472 -1.2655
  304WAT      O  923   0.695   2.541   1.346  0.5380  0.4297 -0.3570
  304WAT     H1  924   0.620   2.591   1.379  0.3430 -0.8410  1.2007
  304WAT     H2  925   0.770   2.598   1.360  0.1385  0.8642  0.0319
  305WAT      O  926   0.936   1.665   1.299  0.3066 -0.5232 -0.3958
  305WAT     H1  927   0.868   1.724   1.267 -0.3832 -0.9574  0.2153
  305WAT     H2  928   0.891   1.610   1.364  1.5561  0.1583  1.1327
  306WAT      O  929   0.226   2.362   1.032 -0.5378  0.0143 -0.5492
  306WAT     H1  930   0.282   2.405   0.968 -0.1490  0.3335  0.0010
  306WAT     H2  931   0.218   2.425   1.103  2.3834 -1.8236  1.6195
  307WAT      O  932   1.854   0.916   1.651 -0.0052  0.0091  0.2764
  307WAT     H1  933   1.792   0.845   1.668 -1.2277  1.4872  2.5661
  307WAT     H2  934   1.835   0.943   1.562 -1.3123 -0.8713  0.2584
  308WAT      O  935   2.417   2.211   0.394  0.2843 -0.0414  0.1863
  308WAT     H1  936   2.369   2.259   0.326 -0.4877 -1.0375  0.0008
  308WAT     H2  937   2.509   2.236   0.380 -0.0494  1.0563 -0.1480
  309WAT      O  938   1.064   0.068   1.414  0.6014 -0.3417  0.3569
  309WAT     H1  939   1.123   0.108   1.349 -0.7768 -0.2254 -0.8658
  309WAT     H2  940   1.013   0.005   1.364 -1.8995  1.1695  0.8682
  310WAT      O  941   1.946   0.647   0.483  0.0705  0.6524  0.0297
  310WAT     H1  942   2.033   0.686   0.489  0.5186 -0.4059  0.5678
  310WAT     H2  943   1.897   0.685   0.556  0.2068  0.9326 -0.0234
  311WAT      O  944   0.932   2.575   1.995 -0.2202  0.2338 -0.4334
  311WAT     H1  945   0.874   2.499   2.000 -0.4056  0.4532  1.5752
  311WAT     H2  946   1.020   2.538   2.001 -0.2858  0.1337 -0.0714
  312WAT      O  947   0.916   2.253   1.589 -0.0603 -0.5909  0.4471
  312WAT     H1  948   0.949   2.176   1.542  1.3197  0.5776 -0.5674
  312WAT     H2  949   0.958   2.327   1.547 -2.4223  0.8724  0.4887
  313WAT      O  950   0.086   1.278   0.267  0.0701 -0.3434  0.6500
  313WAT     H1  951   0.115   1.353   0.319  0.9357  0.8841 -1.4505
  313WAT     H2  952   0.003   1.306   0.228  0.5608 -0.3102 -0.4047
  314WAT      O  953   0.701   1.039   1.998  0.4655 -0.4170  0.1606
  314WAT     H1  954   0.688   1.113   2.056 -0.3093  0.4700 -1.0876
  314WAT     H2  955   0.796   1.035   1.985  0.6099 -0.3697  1.1256
  315WAT      O  956   1.353   1.928   1.644  0.8808 -0.6487 -0.2388
  315WAT     H1  957   1.364   1.906   1.737  1.5633 -3.2300 -0.8513
  315WAT     H2  958   1.259   1.918   1.628  0.5404  1.0787  0.3942
  316WAT      O  959   1.051   0.139   1.678 -0.0177  0.0648  0.4061
  316WAT     H1  960   0.972   0.111   1.723  0.7283 -1.1403  1.0140
  316WAT     H2  961   1.030   0.129   1.585 -1.0785  1.2150  0.5020
  317WAT      O  962   0.955   1.815   2.184 -0.8027  0.1324  0.5207
  317WAT     H1  963   0.876   1.762   2.198 -0.0921 -1.2930 -0.6350
  317WAT     H2  964   0.948   1.845   2.093  0.5438 -1.0535 -0.0170
  318WAT      O  965   1.862   0.627   1.076  0.0146 -0.1149  0.2503
  318WAT     H1  966   1.902   0.593   1.157  0.6647  0.2843  0.1029
  318WAT     H2  967   1.815   0.552   1.040 -0.6718 -0.1866  1.2300
  319WAT      O  968   1.617   1.277   0.052  0.0254  0.2126 -0.0929
  319WAT     H1  969   1.672   1.352   0.075 -0.2822  0.3332  0.2579
  319WAT     H2  970   1.541   1.285   0.110 -1.0190  0.8140 -1.4910
  320WAT      O  971   2.362   0.918   1.456 -0.0811 -0.5584  0.3272
  320WAT     H1  972   2.339   0.982   1.523 -1.4988  0.4868 -1.0833
  320WAT     H2  973   2.307   0.842   1.476 -0.6060 -0.1965  0.2583
  321WAT      O  974   2.604   2.311   2.242 -0.4417  0.0853 -0.9125
  321WAT     H1  975   2.531   2.251   2.230  0.4094 -1.2001  0.1020
  321WAT     H2  976   2.678   2.255   2.263  0.3318  1.5061  0.3308
  322WAT      O  977   0.996   2.171   1.929 -0.1245 -0.1787  0.1188
  322WAT     H1  978   1.026   2.217   1.850  0.4795  0.9923  0.9978
  322WAT     H2  979   1.068   2.181   1.991 -0.9821 -0.2125  1.1524
  323WAT      O  980   0.411   0.782   0.039  0.1233 -0.0718  0.5391
  323WAT     H1  981   0.435   0.874   0.027  0.0330 -0.0575  0.4719
  323WAT     H2  982   0.456   0.756   0.120  0.4458 -0.0723  0.3622
  324WAT      O  983   2.596   0.847   0.999  0.4055  0.8999  0.1745
  324WAT     H1  984   2.584   0.928   1.050 -0.7283  1.0941 -0.3723
  324WAT     H2  985   2.661   0.870   0.933 -0.6582  1.6886 -0.6252
  325WAT      O  986   0.761   2.257   1.211 -0.7259 -0.5487 -0.6603
  325WAT     H1  987   0.845   2.271   1.254 -1.2055  0.3852 -0.0014
  325WAT     H2  988   0.704   2.226   1.281 -0.6909 -2.1889 -1.3093
  326WAT      O  989   1.531   1.990   0.888 -0.0095  0.1185 -0.2204
  326WAT     H1  990   1.455   1.933   0.900 -0.8546  1.2662 -0.0529
  326WAT     H2  991   1.586   1.944   0.825 -0.7058 -0.8488 -0.1354
  327WAT      O  992   2.264   0.992   1.140  0.4544  0.2541 -0.0960
  327WAT     H1  993   2.248   0.917   1.197 -0.2724 -0.0714 -0.7084
  327WAT     H2  994   2.180   1.007   1.096  1.0736  0.2988 -1.3037
  328WAT      O  995   0.567   0.430   0.326  0.0141  0.5291 -0.0071
  328WAT     H1  996   0.533   0.466   0.244 -1.5459 -1.0451 -0.1203
  328WAT     H2  997   0.490   0.423   0.383  0.9997  1.1865  1.4540
  329WAT      O  998   1.072   0.637   1.190  0.0246  0.0400  0.1501
  329WAT     H1  999   1.032   0.557   1.157  0.1477  0.8222 -2.1088
  329WAT     H2 1000   0.999   0.685   1.231 -0.2760 -0.7359  0.5319
  330WAT      O 1001   1.928   1.649   2.491  0.6699 -0.3623 -0.0253
  330WAT     H1 1002   1.854   1.701   2.522 -0.8603 -1.8805 -0.8786
  330WAT     H2 1003   1.971   1.704   2.426 -0.5158  0.1023 -0.4444
  331WAT      O 1004   0.285   0.087   1.411  0.0051 -0.0361 -0.3978
  331WAT     H1 1005   0.238   0.169   1.394  0.9620  0.2522 -1.8064
  331WAT     H2 1006   0.304   0.052   1.324  0.0939 -1.4923  0.1768
  332WAT      O 1007   1.536   1.301   2.288 -0.0176  0.3335 -0.0521
  332WAT     H1 1008   1.540   1.302   2.384 -0.2663 -0.0034 -0.0356
  332WAT     H2 1009   1.605   1.241   2.262 -0.6592 -0.4364 -0.0325
  333WAT      O 1010   2.318   0.478   1.919 -1.0262  0.2272  0.1553
  333WAT     H1 1011   2.281   0.390   1.909  2.1923 -1.2791  0.0514
  333WAT     H2 1012   2.412   0.466   1.900 -0.0835  3.2728  2.2542
  334WAT      O 1013   0.848   1.094   0.713  0.2415 -0.5617  0.2971
  334WAT     H1 1014   0.769   1.046   0.688  1.1569 -1.0133 -1.9001
  334WAT     H2 1015   0.917   1.027   0.718  0.8212  0.0461  0.6757
  335WAT      O 1016   2.449   1.205   0.866 -0.0896 -0.4028 -0.1352
  335WAT     H1 1017   2.516   1.202   0.798 -0.0981 -1.1406 -0.1215
  335WAT     H2 1018   2.490   1.162   0.941  0.6232  2.0574  0.9810
  336WAT      O 1019   0.136   2.122   2.266 -0.5522  0.2136  0.0509
  336WAT     H1 1020   0.179   2.204   2.293  0.4072 -0.5541  0.9756
  336WAT     H2 1021   0.202   2.077   2.213 -0.4865 -0.6187  0.8102
  337WAT      O 1022   2.040   0.183   2.350  0.1635  0.0790  0.2438
  337WAT     H1 1023   2.103   0.248   2.380  1.6709 -1.7298  1.2235
  337WAT     H2 1024   1.963   0.234   2.325  1.5160  2.2642  0.2792
  338WAT      O 1025   0.877   1.326   0.872 -0.2124 -0.2764 -0.4322
  338WAT     H1 1026   0.869   1.256   0.807  0.9459 -0.0182 -0.8751
  338WAT     H2 1027   0.803   1.384   0.855  0.0561 -0.2396 -1.4884
  339WAT      O 1028   1.368   1.821   0.494 -0.3475 -0.7751 -0.6092
  339WAT     H1 1029   1.439   1.885   0.486 -0.5633 -0.6386 -1.5499
  339WAT     H2 1030   1.297   1.869   0.537 -0.1328 -0.7046 -0.3270
  340WAT      O 1031   0.284   1.911   2.130 -0.2242 -0.1045 -0.4325
  340WAT     H1 1032   0.307   1.901   2.223  0.7404  0.2443 -0.6147
  340WAT     H2 1033   0.307   1.827   2.091 -0.3630 -0.1561 -0.4017
  341WAT      O 1034   1.171   2.229   2.118  0.1990 -0.2408  0.0229
  341WAT     H1 1035   1.145   2.247   2.209  0.8569  0.7431  0.0389
  341WAT     H2 1036   1.227   2.152   2.124 -2.2099 -2.0949  0.0415
  342WAT      O 1037   1.744   1.860   1.960  0.7016 -0.1625  0.4175
  342WAT     H1 1038   1.732   1.832   2.051  0.6111 -1.1523  0.1171
  342WAT     H2 1039   1.693   1.940   1.952 -1.8012 -1.6249  0.4835
  343WAT      O 1040   1.098   1.386   0.259  0.4766 -0.2634  0.3508
  343WAT     H1 1041   1.004   1.382   0.244  0.3704 -0.9285  1.1152
  343WAT     H2 1042   1.130   1.447   0.193 -0.3305 -0.8967 -0.6660
  344WAT      O 1043   1.482   2.738   2.304  0.1573 -0.0096 -0.0881
  344WAT     H1 1044   1.568   2.718   2.340  1.3284  0.0154 -2.6449
  344WAT     H2 1045   1.425   2.743   2.380  2.4454  0.2548  1.7318
  345WAT      O 1046   2.172   1.905   1.101 -0.1290  0.0986  0.1815
  345WAT     H1 1047   2.130   1.914   1.015 -0.5927  1.1652  0.4930
  345WAT     H2 1048   2.211   1.991   1.117 -0.4126  0.0446  1.2218
  346WAT      O 1049   0.457   2.380   1.289  0.2034  0.2278 -0.0851
  346WAT     H1 1050   0.444   2.299   1.338  0.2877  0.9607  1.2231
  346WAT     H2 1051   0.542   2.412   1.319  0.1424  0.8226 -0.5334
  347WAT      O 1052   2.517   2.063   0.642 -0.2540 -0.7868  0.5678
  347WAT     H1 1053   2.467   2.115   0.579 -0.7467 -0.6038  1.0973
  347WAT     H2 1054   2.607   2.096   0.635 -0.4242 -0.3470  0.3927
  348WAT      O 1055   2.056   2.499   0.153  0.2865  0.2727  0.2858
  348WAT     H1 1056   2.112   2.567   0.192  1.3641  0.0366 -0.7809
  348WAT     H2 1057   2.055   2.520   0.060  1.9913 -2.0476 -0.3539
  349WAT      O 1058   0.407   0.951   2.017 -0.4032  0.3207 -0.2870
  349WAT     H1 1059   0.382   1.020   2.078  0.6172 -1.1788  1.9338
  349WAT     H2 1060   0.501   0.964   2.003 -0.3866 -0.0906 -0.5754
  350WAT      O 1061   2.260   0.343   1.305  0.6252  0.4730  0.0233
  350WAT     H1 1062   2.203   0.275   1.341  2.5341 -0.7827  0.8352
  350WAT     H2 1063   2.221   0.364   1.220 -0.5005 -1.0570  0.1125
  351WAT      O 1064   2.379   0.691   1.261 -0.0227  0.1202  0.5693
  351WAT     H1 1065   2.380   0.780   1.296  1.8659 -0.2535  1.6439
  351WAT     H2 1066   2.328   0.640   1.324  0.2814  0.1444  0.8381
  352WAT      O 1067   0.271   1.860   0.362 -0.0651 -0.4095 -0.3592
  352WAT     H1 1068   0.290   1.847   0.455  1.9409 -0.7849 -0.7722
  352WAT     H2 1069   0.245   1.773   0.331 -0.8408 -0.2613 -0.1394
  353WAT      O 1070   2.025   2.665   1.585  0.3140  0.3143 -0.2378
  353WAT     H1 1071   1.963   2.601   1.618  0.4154  0.3750  0.0712
  353WAT     H2 1072   2.046   2.635   1.496  1.2327 -0.7163  0.3091
  354WAT      O 1073   1.018   0.883   0.747 -0.0447  0.5335 -0.3089
  354WAT     H1 1074   1.043   0.893   0.839 -0.7693  0.6419 -0.1168
  354WAT     H2 1075   0.999   0.790   0.738  0.0699  0.5148 -0.3652
  355WAT      O 1076   1.609   2.097   1.992 -0.3897  0.7247  0.4065
  355WAT     H1 1077   1.589   2.088   1.899 -1.9848 -1.5578  0.8749
  355WAT     H2 1078   1.543   2.159   2.025 -0.5926  0.6142  0.2120
  356WAT      O 1079   2.492   2.382   0.731 -0.0772 -0.3711  0.2165
  356WAT     H1 1080   2.417   2.326   0.712 -1.6566  0.8265  2.5131
  356WAT     H2 1081   2.536   2.339   0.805 -0.5008  0.6669  1.0924
  357WAT      O 1082   1.958   0.328   2.093 -0.5061  0.4992 -0.7503
  357WAT     H1 1083   1.901   0.341   2.168  1.5759  0.5200  0.9436
  357WAT     H2 1084   1.910   0.268   2.035 -1.3230 -1.3017  1.6314
  358WAT      O 1085   0.884   0.742   2.182  0.2758 -0.5755  1.1333
  358WAT     H1 1086   0.919   0.653   2.192  0.2876 -0.5484  1.3287
  358WAT     H2 1087   0.821   0.735   2.110 -0.2282 -0.8881  1.5968
  359WAT      O 1088   1.332   1.153   2.063 -0.2001  0.1491  0.1117
  359WAT     H1 1089   1.337   1.059   2.046 -2.8640 -0.1647  0.7430
  359WAT     H2 1090   1.403   1.170   2.126  1.3065 -1.0798 -1.1654
  360WAT      O 1091   2.506   2.519   0.469  0.1026  0.3221 -0.3141
  360WAT     H1 1092   2.417   2.510   0.435  0.3090  0.2905 -0.8655
  360WAT     H2 1093   2.500   2.491   0.560 -0.1134 -1.4466 -0.8228
  361WAT      O 1094   1.416   0.312   1.327  0.4073 -0.2028 -0.3370
  361WAT     H1 1095   1.403   0.402   1.356  2.3917 -0.4689  1.6195
  361WAT     H2 1096   1.479   0.319   1.255  1.1803 -0.0491  0.3370
  362WAT      O 1097   2.195   1.437   1.150 -0.5818 -0.0970 -0.0831
  362WAT     H1 1098   2.278   1.484   1.140 -0.5711  0.2356  1.3365
  362WAT     H2 1099   2.214   1.367   1.212 -1.5913  0.6345  1.1043
  363WAT      O 1100   0.965   0.111   0.537  0.2885 -0.1788 -0.3843
  363WAT     H1 1101   0.894   0.157   0.492 -1.5423 -0.9604  1.5349
  363WAT     H2 1102   0.921   0.064   0.608  3.0302  1.5570  2.7259
  364WAT      O 1103   1.275   0.077   2.421  0.2407  0.2801  0.0436
  364WAT     H1 1104   1.201   0.018   2.408  0.8670 -0.9283  1.6643
  364WAT     H2 1105   1.264   0.111   2.510  1.4950  0.2640  0.2297
  365WAT      O 1106   0.284   1.101   1.765 -0.0057  0.0983  0.3059
  365WAT     H1 1107   0.343   1.176   1.772  1.4394 -0.9397 -0.4383
  365WAT     H2 1108   0.296   1.054   1.848 -1.1344  0.7896  0.9018
  366WAT      O 1109   2.659   1.660   0.242  0.4036 -0.5479 -0.2216
  366WAT     H1 1110   2.637   1.694   0.155 -0.6564 -0.0317  0.2234
  366WAT     H2 1111   2.591   1.697   0.299  0.3310 -1.9210  0.6066
  367WAT      O 1112   2.324   0.979   2.247  0.0745  0.7708  0.0566
  367WAT     H1 1113   2.404   1.025   2.271 -0.3586  1.7430 -0.3361
  367WAT     H2 1114   2.314   0.994   2.153 -0.0217 -0.2273 -0.1081
  368WAT      O 1115   0.833   0.562   0.250 -0.0728  0.8406  0.1535
  368WAT     H1 1116   0.747   0.531   0.275  1.3305 -2.9806  0.8513
  368WAT     H2 1117   0.839   0.545   0.156 -0.8650  3.5761 -0.5054
  369WAT      O 1118   1.943   2.877   1.985  0.6792  0.1239  0.3440
  369WAT     H1 1119   1.994   2.871   1.904 -1.3410 -1.2201 -0.9147
  369WAT     H2 1120   1.893   2.958   1.975  1.6373  0.8210  1.0376
  370WAT      O 1121   1.827   1.179   0.455  0.1377  0.0467 -0.3856
  370WAT     H1 1122   1.754   1.182   0.516  0.3311  0.6055 -0.1763
  370WAT     H2 1123   1.805   1.108   0.395  0.0708 -0.6764  0.4829
  371WAT      O 1124   0.120   0.849   0.746  0.0903  0.0864 -0.0274
  371WAT     H1 1125   0.132   0.924   0.688  1.4462  0.3960  0.5947
  371WAT     H2 1126   0.192   0.857   0.809  0.7949 -2.2020 -0.4535
  372WAT      O 1127   0.764   2.593   0.093 -0.0612  0.0129  0.1956
  372WAT     H1 1128   0.809   2.672   0.124  1.2096 -1.1020  1.2822
  372WAT     H2 1129   0.676   2.601   0.129  0.5909  0.0776  1.8813
  373WAT      O 1130   1.712   2.442   2.078 -0.5264 -0.0352  0.3007
  373WAT     H1 1131   1.619   2.436   2.101 -0.4770  0.9960  0.8338
  373WAT     H2 1132   1.734   2.534   2.092  0.7200 -0.3802  0.7058
  374WAT      O 1133   1.258   2.483   1.688  0.5852 -0.2027 -0.1809
  374WAT     H1 1134   1.255   2.578   1.675 -1.8690 -0.2065 -0.0707
  374WAT     H2 1135   1.212   2.469   1.771  3.0388 -1.3669  1.1057
  375WAT      O 1136   0.884   1.185   0.102 -0.0882 -0.5513 -0.1975
  375WAT     H1 1137   0.832   1.211   0.177 -1.3421 -2.7128 -0.2517
  375WAT     H2 1138   0.948   1.123   0.137  0.9119  0.2522 -0.5443
  376WAT      O 1139   0.280   0.247   0.968  0.6410 -0.2589 -0.1549
  376WAT     H1 1140   0.200   0.245   1.020  0.6524 -0.4007 -0.1426
  376WAT     H2 1141   0.332   0.174   1.001  0.6566 -0.3375 -0.3541
  377WAT      O 1142   2.169   1.366  -0.027 -0.0368  0.3889  0.4572
  377WAT     H1 1143   2.197   1.290   0.023  0.9309 -0.0631 -0.7275
  377WAT     H2 1144   2.178   1.440   0.034 -0.4671 -0.3560  1.4440
  378WAT      O 1145   2.605   0.024   1.173 -0.1916  0.7743  0.3273
  378WAT     H1 1146   2.638   0.014   1.262  0.4838  0.9655  0.1023
  378WAT     H2 1147   2.524  -0.026   1.172  0.0766  0.3171  0.8955
  379WAT      O 1148   1.164   1.390   1.982 -0.1636 -0.0908 -0.5043
  379WAT     H1 1149   1.255   1.372   1.961  0.7886  1.0029  2.2097
  379WAT     H2 1150   1.142   1.324   2.049 -1.0143  0.3444 -0.3411
  380WAT      O 1151   0.840   1.013   1.004 -0.1358  0.6286 -0.0202
  380WAT     H1 1152   0.912   0.950   0.998  0.4409  1.2305  0.4461
  380WAT     H2 1153   0.849   1.068   0.927 -1.0414 -0.2505 -0.7854
  381WAT      O 1154   0.451   1.764   1.008 -0.5258 -0.1908  0.0265
  381WAT     H1 1155   0.356   1.763   0.998 -0.5916 -0.2335  0.6235
  381WAT     H2 1156   0.484   1.794   0.923 -1.0493 -0.5602 -0.3142
  382WAT      O 1157   1.153   0.131   2.011  0.1062 -0.0006  0.2641
  382WAT     H1 1158   1.104   0.198   1.963 -1.2258 -1.1443 -0.0653
  382WAT     H2 1159   1.089   0.095   2.072  0.6162 -1.3300  0.0464
  383WAT      O 1160   0.698   0.329   0.060  0.1039 -0.2467  0.7255
  383WAT     H1 1161   0.707   0.291  -0.028  0.2176  1.6121 -0.1173
  383WAT     H2 1162   0.607   0.313   0.084 -0.3334  0.4733 -0.3761
  384WAT      O 1163   2.164   2.736   0.993 -0.0251  0.7480  0.1641
  384WAT     H1 1164   2.189   2.663   0.937  0.6106  1.1203 -0.0428
  384WAT     H2 1165   2.079   2.710   1.029  0.2190 -0.1123  0.1376
  385WAT      O 1166   1.910   2.413   1.589 -0.6474 -0.2660  0.3045
  385WAT     H1 1167   1.960   2.337   1.619  0.3120  0.7058  1.2515
  385WAT     H2 1168   1.842   2.376   1.532 -1.1785 -1.9786  1.9596
  386WAT      O 1169   0.154   1.367   2.461 -0.2304 -0.2329  0.1876
  386WAT     H1 1170   0.141   1.324   2.545 -0.4468 -1.6026 -0.5132
  386WAT     H2 1171   0.171   1.295   2.400  1.8633  0.8371 -0.5965
  387WAT      O 1172   0.863   1.177   0.440 -0.1901 -0.0229 -0.4549
  387WAT     H1 1173   0.854   1.095   0.392 -1.2504 -0.2345  0.0550
  387WAT     H2 1174   0.841   1.153   0.530 -2.2943  1.1299 -0.5995
  388WAT      O 1175   2.648   2.256   0.921  0.6141  0.3315  0.3939
  388WAT     H1 1176   2.728   2.306   0.936  0.9158 -0.3709  1.1718
  388WAT     H2 1177   2.633   2.209   1.003 -0.6377  0.5111  0.2906
  389WAT      O 1178   0.225   1.045   0.243  0.0589  0.2663 -0.3234
  389WAT     H1 1179   0.175   0.971   0.277  0.6731  0.3401  0.7716
  389WAT     H2 1180   0.175   1.122   0.269  0.9994  0.3729  1.3071
  390WAT      O 1181   0.956   0.601   2.454  0.4542  0.2000  0.0852
  390WAT     H1 1182   0.925   0.687   2.482  1.3817  0.1346  1.4417
  390WAT     H2 1183   0.886   0.567   2.399 -0.1255  1.6280 -0.1187
  391WAT      O 1184   0.299   2.872   1.157  0.2824 -0.3783  0.2474
  391WAT     H1 1185   0.363   2.818   1.111 -0.5429 -0.5455 -0.7535
  391WAT     H2 1186   0.221   2.868   1.102  0.1940  1.8539  0.1320
  392WAT      O 1187   1.183   0.198   0.421  0.5390 -0.0125  0.3275
  392WAT     H1 1188   1.173   0.249   0.340  1.1398  0.6632  0.6694
  392WAT     H2 1189   1.093   0.188   0.454  0.0726 -1.8307 -1.3212
  393WAT      O 1190   1.819   2.526   1.305 -0.3658 -0.0095 -0.2909
  393WAT     H1 1191   1.873   2.468   1.359 -2.4708 -0.8413  1.0429
  393WAT     H2 1192   1.801   2.601   1.361 -3.2435 -1.2434  0.6382
  394WAT      O 1193   0.463   1.917   1.257  0.1953 -0.3989  0.4034
  394WAT     H1 1194   0.462   1.839   1.201  0.8390  0.1428 -0.3931
  394WAT     H2 1195   0.395   1.973   1.220  0.4165 -0.1687  0.3408
  395WAT      O 1196   0.971   1.595   2.015 -0.1876  0.1404 -0.5183
  395WAT     H1 1197   0.971   1.645   2.096  0.7231  0.2400 -0.5739
  395WAT     H2 1198   1.051   1.543   2.018 -0.8954 -1.0209 -0.6543
  396WAT      O 1199   0.973   1.961   0.949 -0.1811 -0.1087  0.7226
  396WAT     H1 1200   0.885   1.982   0.981 -0.1455  1.3294 -0.0692
  396WAT     H2 1201   0.968   1.868   0.925 -1.1895 -0.2992  1.6032
  397WAT      O 1202   1.226   0.544   0.047 -0.6001 -0.0729 -0.7109
  397WAT     H1 1203   1.292   0.607   0.018  0.4065 -1.6972 -2.0878
  397WAT     H2 1204   1.146   0.568  -0.001 -0.5268  0.7989 -0.4026
  398WAT      O 1205   2.571   0.916   0.099 -0.4269 -0.2479 -0.2505
  398WAT     H1 1206   2.567   1.009   0.120 -0.8247 -0.2711 -0.2158
  398WAT     H2 1207   2.529   0.908   0.014 -1.5189 -0.5543  0.2961
  399WAT      O 1208   1.010   0.940   1.950 -0.4416 -0.4053 -0.0948
  399WAT     H1 1209   1.104   0.957   1.957 -0.2807 -0.6599 -1.3665
  399WAT     H2 1210   1.000   0.850   1.983 -0.2774 -0.2963  0.2562
  400WAT      O 1211   1.194   2.101   1.440 -0.1933  0.0984 -0.4363
  400WAT     H1 1212   1.102   2.075   1.439 -0.0115 -0.5572 -0.7062
  400WAT     H2 1213   1.236   2.042   1.377  0.1357  1.4150 -1.5071
  401WAT      O 1214   0.253   1.161   1.341  0.2172 -0.5708 -0.0321
  401WAT     H1 1215   0.252   1.205   1.256  0.2195  0.0374  0.2809
  401WAT     H2 1216   0.322   1.206   1.391 -1.4468  0.7437  1.1672
  402WAT      O 1217   2.171   1.619   0.116  0.1261 -0.3702 -0.3636
  402WAT     H1 1218   2.089   1.633   0.070 -0.5872 -1.4732  0.5273
  402WAT     H2 1219   2.214   1.705   0.115 -0.6029  0.0086 -1.6155
  403WAT      O 1220   0.076   1.929   1.327  0.1796 -0.0357  0.4464
  403WAT     H1 1221   0.001   1.942   1.385 -0.0846  0.7310 -0.0491
  403WAT     H2 1222   0.111   1.844   1.352 -1.2238 -0.6814  0.2839
  404WAT      O 1223   0.812   1.179   1.632 -0.7149 -0.2998  0.2886
  404WAT     H1 1224   0.882   1.216   1.686 -0.4352  0.1876 -0.3911
  404WAT     H2 1225   0.817   1.085   1.648  1.1969 -0.4771 -0.9821
  405WAT      O 1226   1.887   0.496   1.620 -0.1406  0.3996  0.4452
  405WAT     H1 1227   1.843   0.573   1.658 -0.5509  0.0777  0.6259
  405WAT     H2 1228   1.827   0.424   1.636  0.3898 -0.0194  0.5467
  406WAT      O 1229   0.687   0.852   0.756 -0.1353 -0.0354 -0.1966
  406WAT     H1 1230   0.616   0.789   0.763  0.2719 -0.4639  0.2167
  406WAT     H2 1231   0.723   0.856   0.845  0.1986  0.3537 -0.3488
  407WAT      O 1232   0.684   1.738   2.266  0.0668 -0.4277  0.2850
  407WAT     H1 1233   0.607   1.769   2.218 -1.1679 -0.3615  2.2029
  407WAT     H2 1234   0.650   1.712   2.352  2.1923 -0.3652  1.2079
  408WAT      O 1235   2.303   0.777   0.262 -0.0364 -0.5439  0.5999
  408WAT     H1 1236   2.240   0.814   0.199  0.4234 -0.5070  0.1604
  408WAT     H2 1237   2.282   0.821   0.344 -0.8899 -0.8680  0.5688
  409WAT      O 1238   2.073   0.862   0.932  0.1387  0.1371 -0.7109
  409WAT     H1 1239   2.003   0.798   0.917  0.7467 -0.5964 -0.4613
  409WAT     H2 1240   2.030   0.933   0.981 -0.0710 -1.0736  0.9264
  410WAT      O 1241   0.963   2.178   0.670  0.6590  0.6383  0.3521
  410WAT     H1 1242   0.907   2.180   0.592  0.7144  0.8673  0.3170
  410WAT     H2 1243   0.904   2.154   0.741  0.0642  2.8350  0.6792
  411WAT      O 1244   2.674   0.398   0.098  0.5677 -0.2516 -0.1864
  411WAT     H1 1245   2.654   0.375   0.189  0.1035 -0.6379 -0.3813
  411WAT     H2 1246   2.613   0.469   0.077  2.0928  1.3268  0.4600
  412WAT      O 1247   0.896   2.797   0.237  0.3892  0.1204  0.2359
  412WAT     H1 1248   0.936   2.842   0.162 -0.7344 -0.1155 -0.5221
  412WAT     H2 1249   0.817   2.846   0.255  1.7112  1.5417  2.7412
  413WAT      O 1250   2.287   2.716   0.173  0.1244  0.0092  0.3594
  413WAT     H1 1251   2.359   2.773   0.200 -0.1991 -0.2027  1.7287
  413WAT     H2 1252   2.225   2.775   0.129  1.5442  0.0310 -1.7412
  414WAT      O 1253   0.267   1.967   0.099  0.5340 -0.6219 -0.3245
  414WAT     H1 1254   0.268   1.968   0.195  3.0743  2.3505 -0.2353
  414WAT     H2 1255   0.179   1.999   0.076 -0.4808 -2.3412  0.8875
  415WAT      O 1256   1.896   1.705   1.784  0.3452  0.6361  0.2525
  415WAT     H1 1257   1.845   1.770   1.833  0.5314  0.4327  0.7229
  415WAT     H2 1258   1.830   1.652   1.738  0.2040  1.3512 -0.3918
  416WAT      O 1259   0.062   1.267   1.715  0.4516 -0.0911 -0.0588
  416WAT     H1 1260   0.131   1.201   1.709 -0.7117 -1.4361  0.7777
  416WAT     H2 1261   0.007   1.238   1.787 -0.5916  1.3371 -0.2379
  417WAT      O 1262   1.888   0.700   0.739 -0.5427  0.3693  0.6637
  417WAT     H1 1263   1.795   0.724   0.737 -0.3040  1.4448  1.3305
  417WAT     H2 1264   1.888   0.607   0.761 -1.4592  0.3613  0.6893
  418WAT      O 1265   1.131   1.407   1.526  0.0090 -0.2406 -0.0957
  418WAT     H1 1266   1.168   1.491   1.552  1.2168 -0.8017  0.1023
  418WAT     H2 1267   1.081   1.378   1.602 -1.3793  0.8059 -0.5799
  419WAT      O 1268   1.996   2.190   0.995 -0.1829 -0.1217 -0.0325
  419WAT     H1 1269   1.960   2.277   1.013 -0.3562 -0.3704  0.8430
  419WAT     H2 1270   1.924   2.129   1.014  0.1842 -0.5117  0.1164
  420WAT      O 1271   1.262   0.376   2.134 -0.2823  0.3227 -0.0878
  420WAT     H1 1272   1.222   0.303   2.086 -0.6692  0.2067  0.4150
  420WAT     H2 1273   1.356   0.366   2.117 -0.4727  0.8273 -1.5868
  421WAT      O 1274   0.367   0.376   0.136  0.5048  0.0711  0.3428
  421WAT     H1 1275   0.324   0.385   0.222  1.1160 -0.2572  0.6923
  421WAT     H2 1276   0.299   0.340   0.079 -0.0243  0.6639  0.5833
  422WAT      O 1277   1.569   1.597   1.351  0.0569  0.2840  0.3347
  422WAT     H1 1278   1.482   1.556   1.358  0.2278 -0.5830 -1.8300
  422WAT     H2 1279   1.573   1.629   1.261  1.4394  1.6487  0.8467
  423WAT      O 1280   0.918   2.733   1.747  0.3513  0.0483 -0.2666
  423WAT     H1 1281   0.829   2.705   1.727  0.2256  0.5849 -0.4680
  423WAT     H2 1282   0.929   2.714   1.840 -0.1873  0.5528 -0.0949
  424WAT      O 1283   0.236   0.379   1.323  0.4267  0.0063 -0.0078
  424WAT     H1 1284   0.258   0.471   1.310 -1.3343  0.4999  0.2325
  424WAT     H2 1285   0.192   0.353   1.242  3.6029 -1.5945 -1.4118
  425WAT      O 1286   1.530   0.460   0.419 -0.0162  0.0181  0.1187
  425WAT     H1 1287   1.620   0.437   0.442 -0.4856 -2.4173 -0.2176
  425WAT     H2 1288   1.514   0.412   0.338 -1.3894  1.0472 -0.2501
  426WAT      O 1289   0.886   1.811   0.515  0.6360 -0.0994  0.0107
  426WAT     H1 1290   0.914   1.752   0.445  1.0229  0.9275 -0.7136
  426WAT     H2 1291   0.955   1.803   0.582  0.2456 -1.1089  0.3057
  427WAT      O 1292   0.733   1.469   2.059 -0.4551  0.0279 -0.5202
  427WAT     H1 1293   0.669   1.534   2.030 -1.7471 -0.9450  0.0395
  427WAT     H2 1294   0.818   1.508   2.038 -1.2067  1.5540 -0.8836
  428WAT      O 1295   0.625   1.553   1.035 -0.0618 -0.2351  0.8130
  428WAT     H1 1296   0.566   1.628   1.044 -0.2494 -0.4135  1.1048
  428WAT     H2 1297   0.581   1.496   0.972 -0.3265 -0.4842  1.2191
  429WAT      O 1298   1.402   1.594   0.373 -0.2257 -0.1121 -0.1242
  429WAT     H1 1299   1.337   1.538   0.415  0.5505 -1.7509 -1.0215
  429WAT     H2 1300   1.404   1.673   0.427 -0.6873 -1.3178  1.7508
  430WAT      O 1301   1.194   0.863   0.511  0.3065 -0.8750  0.1365
  430WAT     H1 1302   1.150   0.864   0.596  0.7237 -0.3916  0.3569
  430WAT     H2 1303   1.143   0.802   0.458 -1.6328  0.8772 -0.1483
  431WAT      O 1304   0.140   0.158   0.525  0.5250 -0.3877  0.1999
  431WAT     H1 1305   0.085   0.178   0.601  0.5253  1.2345 -0.1895
  431WAT     H2 1306   0.087   0.185   0.450  0.6909 -1.5912 -0.3602
  432WAT      O 1307   0.877   0.918   1.692  0.2963  0.0285 -0.0290
  432WAT     H1 1308   0.950   0.943   1.636  2.0894 -0.8166  1.7758
  432WAT     H2 1309   0.918   0.894   1.775 -2.0051 -1.0340  0.8989
  433WAT      O 1310   2.303   2.749   0.673  0.2721  0.1480  0.1231
  433WAT     H1 1311   2.331   2.686   0.739  0.8374  1.4608  1.2041
  433WAT     H2 1312   2.357   2.827   0.690 -0.0185  0.7563 -1.4863
  434WAT      O 1313   1.889   2.301   0.583 -0.4319  0.3539 -1.1448
  434WAT     H1 1314   1.909   2.259   0.667 -0.3533 -0.2704 -1.4685
  434WAT     H2 1315   1.927   2.242   0.517  1.3274  1.8734 -1.5457
  435WAT      O 1316   2.238   2.579   0.425  0.3182 -0.3872 -0.5093
  435WAT     H1 1317   2.248   2.662   0.471 -0.1782 -0.7044  0.1727
  435WAT     H2 1318   2.262   2.599   0.334 -1.4826  0.9109 -0.7365
  436WAT      O 1319   0.708   0.026   1.337  0.2445 -0.1455 -0.1539
  436WAT     H1 1320   0.747   0.047   1.252 -1.0234 -1.0580 -1.0022
  436WAT     H2 1321   0.751  -0.055   1.363  0.7943  0.2512  0.2070
  437WAT      O 1322   1.524   0.008   2.045 -0.3418  0.1428  0.4517
  437WAT     H1 1323   1.463  -0.014   1.974 -2.0515 -1.1633  2.1942
  437WAT     H2 1324   1.469   0.009   2.124  1.8657 -0.9551  2.1213
  438WAT      O 1325   2.231   0.212   2.093  0.2583  0.4401 -0.1126
  438WAT     H1 1326   2.251   0.203   1.999  0.6124  1.8413 -0.1846
  438WAT     H2 1327   2.143   0.248   2.095  0.3300  0.6017  0.0938
  439WAT      O 1328   1.740   2.822   2.450  0.1916  0.5047 -0.0204
  439WAT     H1 1329   1.781   2.871   2.522 -1.0568  1.7425 -0.1037
  439WAT     H2 1330   1.770   2.732   2.462  0.3466  0.7610  1.8131
  440WAT      O 1331   0.565   2.319   0.299 -0.2999 -0.0271 -0.4697
  440WAT     H1 1332   0.558   2.411   0.326  0.5060  0.0610 -0.5224
  440WAT     H2 1333   0.635   2.319   0.234 -0.5810 -0.6190 -0.7745
  441WAT      O 1334   0.752   0.497   0.873  0.4398 -0.0538 -0.2254
  441WAT     H1 1335   0.750   0.586   0.906  1.6955  1.4664 -3.7318
  441WAT     H2 1336   0.694   0.448   0.931 -1.6483  3.4007  0.8750
  442WAT      O 1337   2.525   0.460   1.193 -0.7459 -0.2500 -0.0248
  442WAT     H1 1338   2.482   0.545   1.204 -1.0420  0.0136 -2.6094
  442WAT     H2 1339   2.543   0.430   1.282 -0.9717  2.3397  0.9670
  443WAT      O 1340   2.100   0.393   1.090  0.0107  0.6824  0.3402
  443WAT     H1 1341   2.010   0.367   1.069  0.3159 -0.3826  0.2791
  443WAT     H2 1342   2.111   0.477   1.047 -0.6644  0.3969 -0.4193
  444WAT      O 1343   0.613   0.747   1.491 -0.3439 -0.0282  0.3576
  444WAT     H1 1344   0.562   0.771   1.569  0.0454 -0.9986  0.9128
  444WAT     H2 1345   0.637   0.656   1.504  2.5392  0.6956  0.6594
  445WAT      O 1346   0.386   2.850   0.088  0.5110  0.4690 -0.6502
  445WAT     H1 1347   0.304   2.857   0.137  0.1082 -2.2525 -0.7720
  445WAT     H2 1348   0.384   2.924   0.027 -1.2713  1.1485  0.1626
  446WAT      O 1349   0.266   0.180   2.050  0.6055 -0.0669  0.2379
  446WAT     H1 1350   0.260   0.265   2.094  0.4711  0.0863 -0.0686
  446WAT     H2 1351   0.262   0.202   1.957  0.8946 -0.3849  0.1503
  447WAT      O 1352   0.476   2.133   0.938  0.0598  0.0690  0.1299
  447WAT     H1 1353   0.518   2.216   0.959  0.5482 -0.1447  0.0202
  447WAT     H2 1354   0.420   2.114   1.014  1.3699 -0.4169  0.9998
  448WAT      O 1355   1.295   2.069   1.129  0.5658  0.0617 -0.4163
  448WAT     H1 1356   1.299   1.980   1.162 -0.7129  0.6263  1.4288
  448WAT     H2 1357   1.373   2.112   1.165 -0.0194  0.2697  0.6284
  449WAT      O 1358   1.557   1.344   1.853  0.3078  0.4561  0.0602
  449WAT     H1 1359   1.641   1.301   1.840  0.1126 -0.6709  2.0116
  449WAT     H2 1360   1.525   1.362   1.765  1.0489 -2.2280 -0.8491
  450WAT      O 1361   1.562   0.697   0.282 -0.0439  0.4004  0.4310
  450WAT     H1 1362   1.541   0.604   0.278  1.5235  0.0100  0.5837
  450WAT     H2 1363   1.657   0.701   0.275 -0.0015  1.9465  1.2745
  451WAT      O 1364   1.772   1.174   1.807 -0.0291 -0.5117  0.5228
  451WAT     H1 1365   1.701   1.117   1.836  0.2041 -0.8616  0.4116
  451WAT     H2 1366   1.807   1.131   1.729 -0.0936 -0.0234  0.2143
  452WAT      O 1367   2.447   1.714   0.413 -0.5791  0.4396  0.2326
  452WAT     H1 1368   2.465   1.731   0.506  2.0462  3.1949 -0.6259
  452WAT     H2 1369   2.413   1.796   0.380  0.4679  0.1626 -1.6493
  453WAT      O 1370   0.471   0.253   0.789  0.1860 -0.0350  0.1015
  453WAT     H1 1371   0.384   0.247   0.830 -1.6152  0.8930 -3.2109
  453WAT     H2 1372   0.496   0.344   0.800  0.3068 -0.0817  0.2183
  454WAT      O 1373   2.021   1.914   2.428  0.5350  0.0751 -0.0760
  454WAT     H1 1374   2.024   2.000   2.386 -1.2345 -0.0037 -0.4463
  454WAT     H2 1375   2.000   1.934   2.520 -0.4381  0.0328 -0.2794
  455WAT      O 1376   2.267   2.542   2.222 -0.3039  0.2281 -0.1921
  455WAT     H1 1377   2.266   2.629   2.184 -0.3975 -0.1826 -1.1460
  455WAT     H2 1378   2.194   2.542   2.284 -0.2262  0.8564 -0.0910
  456WAT      O 1379   1.380   1.744   0.905 -0.4367  0.3849 -0.1595
  456WAT     H1 1380   1.438   1.683   0.859 -1.7748 -0.3601 -0.9488
  456WAT     H2 1381   1.292   1.711   0.885 -1.1567  2.0085  0.2301
  457WAT      O 1382   1.119   1.114   0.202  0.2512  0.1268 -0.3789
  457WAT     H1 1383   1.101   1.207   0.215 -0.2462  0.0855 -0.7733
  457WAT     H2 1384   1.162   1.087   0.283 -0.6981  0.4207  0.2441
  458WAT      O 1385   1.769   1.069   0.104 -0.3154  0.2455 -0.3295
  458WAT     H1 1386   1.787   1.055   0.011  2.7597  0.4305  0.1529
  458WAT     H2 1387   1.708   1.143   0.105 -0.6045  0.0834 -2.1965
  459WAT      O 1388   0.420   1.184   2.163 -0.1046 -0.1531  0.1519
  459WAT     H1 1389   0.491   1.223   2.214  0.3414 -1.3959  0.5177
  459WAT     H2 1390   0.438   1.211   2.073 -0.0146  0.7629  0.4320
  460WAT      O 1391   2.368   1.736   1.984 -0.3162  0.3062 -0.3308
  460WAT     H1 1392   2.273   1.726   1.980 -0.5637  1.7059  1.0173
  460WAT     H2 1393   2.400   1.650   2.013 -1.2527  0.0563 -0.0007
  461WAT      O 1394   2.309   1.704   1.203 -0.2385 -0.3533  0.1800
  461WAT     H1 1395   2.274   1.770   1.144 -0.4439 -1.8510 -1.4598
  461WAT     H2 1396   2.232   1.664   1.242 -0.1463 -0.1645  0.5573
  462WAT      O 1397   1.587   2.302   0.055  0.1282  0.1850  0.1660
  462WAT     H1 1398   1.609   2.291   0.147 -1.5979  0.6438  0.6788
  462WAT     H2 1399   1.492   2.286   0.051  0.1219  0.4188 -1.4896
  463WAT      O 1400   0.977   0.462   1.469  0.1517  0.1415 -0.5220
  463WAT     H1 1401   0.975   0.389   1.407  0.5285 -0.3264  0.0073
  463WAT     H2 1402   0.941   0.536   1.420 -0.7169 -0.5128 -0.9084
  464WAT      O 1403   1.527   1.372   1.555  0.3890  0.0183 -0.3482
  464WAT     H1 1404   1.561   1.306   1.494 -1.4053 -2.3458  1.0211
  464WAT     H2 1405   1.446   1.403   1.514  1.0278  1.1015 -0.8059
  465WAT      O 1406   0.707   2.683   0.884  1.0478  0.6297  0.6606
  465WAT     H1 1407   0.750   2.631   0.951 -0.7135 -2.4124 -0.3477
  465WAT     H2 1408   0.619   2.699   0.919  0.2061 -0.7431 -0.6859
  466WAT      O 1409   2.529   1.422   0.210 -0.2960  0.2428  0.0559
  466WAT     H1 1410   2.461   1.457   0.268 -0.2524  1.0120 -0.3544
  466WAT     H2 1411   2.569   1.499   0.170 -0.6407 -0.2924 -1.3652
  467WAT      O 1412   1.309   1.321   1.010 -0.2545  0.1547  0.4301
  467WAT     H1 1413   1.217   1.317   1.035 -0.8414 -3.1849 -1.6727
  467WAT     H2 1414   1.307   1.352   0.919  0.5290 -1.1800 -0.0685
  468WAT      O 1415   0.278   2.724   0.813 -0.3591 -0.6218 -0.2213
  468WAT     H1 1416   0.301   2.800   0.759  0.7376 -0.9839 -0.3028
  468WAT     H2 1417   0.196   2.748   0.855  0.9559  1.5118  1.3615
  469WAT      O 1418   2.402   2.761   1.159  0.3586 -0.2420 -0.2035
  469WAT     H1 1419   2.420   2.685   1.103  0.7091 -0.2343 -0.1026
  469WAT     H2 1420   2.320   2.797   1.124 -1.7935 -2.7101  1.9351
  470WAT      O 1421   0.576   2.799   0.466  0.0140  0.3933 -0.0029
  470WAT     H1 1422   0.623   2.867   0.514 -0.3594  0.3162  0.4823
  470WAT     H2 1423   0.489   2.797   0.505  0.0644 -0.4710  0.0986
  471WAT      O 1424   0.261   0.388   0.429  0.0928 -0.3165  0.2523
  471WAT     H1 1425   0.240   0.302   0.465 -0.0674 -0.0370  0.8324
  471WAT     H2 1426   0.180   0.438   0.437  0.2439 -0.0453  0.1067
  472WAT      O 1427   2.562   1.949   1.540  0.2386  0.2876  0.6851
  472WAT     H1 1428   2.634   1.950   1.602 -0.3303  0.8792  1.3603
  472WAT     H2 1429   2.534   1.858   1.537 -0.7730  0.4937  2.5781
  473WAT      O 1430   0.473   0.335   2.230 -0.3229  0.3306  0.1850
  473WAT     H1 1431   0.559   0.320   2.191  0.1422 -2.6873  2.0478
  473WAT     H2 1432   0.490   0.393   2.304 -0.2197  1.1821 -0.4925
  474WAT      O 1433   1.619   0.597   1.399  0.2632 -0.2061  0.0694
  474WAT     H1 1434   1.645   0.636   1.483  0.6397 -0.4098  0.0494
  474WAT     H2 1435   1.525   0.613   1.393 -0.1248 -1.6911  1.3472
  475WAT      O 1436   0.281   0.750   1.878 -0.3024 -0.3064 -0.0545
  475WAT     H1 1437   0.325   0.823   1.922  0.1366 -1.3058  1.1840
  475WAT     H2 1438   0.188   0.770   1.888 -0.2237  1.3004 -1.8297
  476WAT      O 1439   1.338   1.016   1.456 -0.0345 -0.1231  0.2966
  476WAT     H1 1440   1.391   1.020   1.376 -1.9495 -1.7213 -1.1445
  476WAT     H2 1441   1.385   0.957   1.514  0.4356 -0.4812 -0.4388
  477WAT      O 1442   1.649   1.347   0.931  0.0145  0.2920 -0.2244
  477WAT     H1 1443   1.564   1.350   0.888 -0.1064  1.7162  0.0800
  477WAT     H2 1444   1.698   1.420   0.894  0.4236  0.6480  0.9742
  478WAT      O 1445   0.486   0.176   1.122 -0.2560  0.4449  0.4478
  478WAT     H1 1446   0.512   0.266   1.142  1.8540 -0.3004  1.3972
  478WAT     H2 1447   0.537   0.123   1.183 -1.2635 -1.4183 -0.2686
  479WAT      O 1448   1.935   1.882   0.267 -0.4630 -0.3476  0.4587
  479WAT     H1 1449   1.900   1.856   0.352  0.7172 -1.2021  0.7154
  479WAT     H2 1450   1.867   1.858   0.204 -1.3246  0.2442  1.1546
  480WAT      O 1451   1.377   1.841   1.889 -0.1606  0.0948 -0.5613
  480WAT     H1 1452   1.427   1.813   1.965 -0.2029 -0.2773 -0.6704
  480WAT     H2 1453   1.328   1.917   1.919  1.0926  0.9758 -0.6733
  481WAT      O 1454   1.168   2.473   0.960 -0.1540  0.1366 -0.2781
  481WAT     H1 1455   1.144   2.395   1.009 -1.0155 -0.1923 -1.1898
  481WAT     H2 1456   1.263   2.479   0.970 -0.2255 -0.3275  0.7986
  482WAT      O 1457   1.528   1.234   1.149  0.5238 -0.2535 -0.0273
  482WAT     H1 1458   1.586   1.284   1.091 -1.2927 -0.3207 -2.0530
  482WAT     H2 1459   1.448   1.288   1.154  0.6849 -0.1219  2.7237
  483WAT      O 1460   0.097   2.870   0.127 -0.1324 -0.0844  0.2968
  483WAT     H1 1461   0.055   2.813   0.191 -0.6347 -0.3057 -0.2230
  483WAT     H2 1462   0.032   2.882   0.058  0.8904 -1.0396 -0.8996
  484WAT      O 1463   0.684   1.225   2.189  0.3943 -0.1838 -0.3185
  484WAT     H1 1464   0.765   1.227   2.240  0.3713 -0.2066 -0.2813
  484WAT     H2 1465   0.691   1.301   2.131  1.0551 -0.9332 -1.2609
  485WAT      O 1466   1.567   1.131   0.525 -0.0774  0.3117  0.1730
  485WAT     H1 1467   1.478   1.154   0.549 -0.3330  0.1827 -0.6118
  485WAT     H2 1468   1.574   1.037   0.544 -0.7989 -0.1677 -1.6726
  486WAT      O 1469   0.893   2.703   1.426 -0.5552 -0.0442 -0.3666
  486WAT     H1 1470   0.950   2.658   1.364 -0.3620 -0.2470 -0.0431
  486WAT     H2 1471   0.939   2.697   1.510 -0.3615  1.0495 -0.3775
  487WAT      O 1472   1.728   0.080   2.268 -0.2969 -0.2095 -0.4737
  487WAT     H1 1473   1.725   0.004   2.326  0.0172 -0.9773 -1.4218
  487WAT     H2 1474   1.643   0.081   2.225 -0.6118  0.4892  0.1481
  488WAT      O 1475   0.425   0.715   0.767 -0.2473 -0.1260 -0.2592
  488WAT     H1 1476   0.366   0.687   0.837 -0.0529 -0.0313 -0.0532
  488WAT     H2 1477   0.394   0.802   0.743  0.2304  0.2254  0.3418
  489WAT      O 1478   1.807   0.126   0.817  0.0644 -0.1255 -0.3335
  489WAT     H1 1479   1.782   0.034   0.816 -1.5877  0.2314  1.5371
  489WAT     H2 1480   1.767   0.163   0.739  0.6490 -0.9443 -1.0351
  490WAT      O 1481   2.134   1.949   1.379 -0.2763 -0.2452  0.3334
  490WAT     H1 1482   2.126   1.861   1.417 -1.1980 -0.3392 -0.0494
  490WAT     H2 1483   2.108   1.938   1.288 -0.5732  0.4607  0.3269
  491WAT      O 1484   0.074   2.222   0.618 -0.6219 -0.5009 -0.1498
  491WAT     H1 1485   0.084   2.268   0.535  1.6347 -0.8980 -0.1822
  491WAT     H2 1486   0.070   2.291   0.684  1.8587 -0.1481 -0.2723
  492WAT      O 1487   0.536   1.604   1.676  0.1347 -0.3552  0.0256
  492WAT     H1 1488   0.544   1.679   1.617  1.0518 -0.8772 -0.5302
  492WAT     H2 1489   0.516   1.643   1.761 -2.8107  0.3566 -0.8658
  493WAT      O 1490   1.169   2.561   0.006 -0.1254  0.2426 -0.7418
  493WAT     H1 1491   1.175   2.528   0.096 -0.2206  2.8300  0.2911
  493WAT     H2 1492   1.259   2.584  -0.017  0.3538 -2.7429 -2.3779
  494WAT      O 1493   0.080   1.746   0.903 -0.5486  0.0760 -0.0573
  494WAT     H1 1494   0.087   1.706   0.990  0.0420 -0.4557 -0.3440
  494WAT     H2 1495   0.116   1.834   0.915  1.6519 -0.7428 -0.2460
  495WAT      O 1496   2.438   2.483   1.784  0.1017 -0.2448  0.4444
  495WAT     H1 1497   2.518   2.432   1.772  0.2089 -0.4444  1.8686
  495WAT     H2 1498   2.401   2.451   1.867 -0.8717  0.6217  0.3672
  496WAT      O 1499   0.294   2.847   1.887 -0.1347  0.0855 -0.7342
  496WAT     H1 1500   0.325   2.919   1.942  0.2015  1.0546 -2.1181
  496WAT     H2 1501   0.201   2.838   1.910  0.5198 -1.1898  1.6864
  497WAT      O 1502   0.822   1.569   1.759 -0.0902 -0.3747 -0.4031
  497WAT     H1 1503   0.834   1.605   1.848  0.6372  0.6272 -0.8855
  497WAT     H2 1504   0.727   1.568   1.747 -0.1559  0.8146 -0.1227
  498WAT      O 1505   1.748   1.824   0.063 -0.0314  0.1224 -0.5455
  498WAT     H1 1506   1.667   1.794   0.103 -0.6869  0.4963 -1.5536
  498WAT     H2 1507   1.731   1.915   0.039  0.6819  0.2067 -0.7646
  499WAT      O 1508   1.988   2.547   0.532  0.7426  0.0538  0.1531
  499WAT     H1 1509   1.948   2.473   0.580 -0.9815  0.9923  0.2454
  499WAT     H2 1510   2.081   2.523   0.525  0.1548 -2.4044 -0.3435
  500WAT      O 1511   1.295   1.062   0.401  0.5565 -0.1748  0.5142
  500WAT     H1 1512   1.357   1.009   0.352 -1.3183 -0.4770 -1.6924
  500WAT     H2 1513   1.256   1.002   0.464 -0.1320 -0.9374 -0.6195
  501WAT      O 1514   2.264   0.932   0.019 -0.2592  0.2523 -0.1171
  501WAT     H1 1515   2.282   0.958  -0.071  0.1757 -0.3757 -0.2214
  501WAT     H2 1516   2.329   0.979   0.071  0.6319 -0.7007 -0.3213
  502WAT      O 1517   0.868   2.149   2.442  0.4287 -0.2345 -0.2828
  502WAT     H1 1518   0.950   2.198   2.438  2.0216 -2.5456  1.2309
  502WAT     H2 1519   0.817   2.194   2.510  1.2186  0.2046  0.0367
  503WAT      O 1520   2.081   2.267   0.313  0.5054 -0.2584 -0.4563
  503WAT     H1 1521   2.160   2.287   0.262  0.1034  1.3993 -0.4749
  503WAT     H2 1522   2.018   2.334   0.287 -0.3418 -0.5170  0.8425
  504WAT      O 1523   1.044   1.881   1.691 -0.7987 -0.3590 -0.1254
  504WAT     H1 1524   1.048   1.787   1.673  1.5554 -0.6571  1.5061
  504WAT     H2 1525   1.003   1.918   1.614  0.8923 -2.4358 -2.1823
  505WAT      O 1526   1.161   2.593   1.405 -0.3617  0.1281 -0.1188
  505WAT     H1 1527   1.195   2.648   1.476 -0.0842 -1.1565  0.7745
  505WAT     H2 1528   1.227   2.600   1.335  1.0285 -1.1318  1.0080
  506WAT      O 1529   0.450   1.291   1.924 -0.5339 -0.5456 -0.0833
  506WAT     H1 1530   0.519   1.349   1.954 -0.5027 -0.5123 -0.2183
  506WAT     H2 1531   0.400   1.344   1.861 -0.9611 -0.4152  0.3561
  507WAT      O 1532   0.096   1.001   1.527 -0.3064 -0.0664 -0.3949
  507WAT     H1 1533   0.138   1.058   1.463 -0.7136 -0.5680 -1.1207
  507WAT     H2 1534   0.166   0.977   1.588  0.5203 -1.0674 -1.7007
  508WAT      O 1535   1.909   0.581   1.334 -0.4132  0.5910  0.0778
  508WAT     H1 1536   1.935   0.530   1.410  0.9633 -1.8065 -1.8373
  508WAT     H2 1537   1.818   0.606   1.351 -0.6652 -1.2843  1.7670
  509WAT      O 1538   2.548   1.101   1.131 -1.1074  0.1248 -0.2658
  509WAT     H1 1539   2.581   1.131   1.215 -1.2574  1.3466 -0.6355
  509WAT     H2 1540   2.455   1.082   1.146 -1.4363  1.4982 -0.4198
  510WAT      O 1541   0.481   1.117   0.189  0.2743  0.2792 -1.0130
  510WAT     H1 1542   0.389   1.091   0.194 -0.1933  1.6586 -1.7765
  510WAT     H2 1543   0.506   1.098   0.099  1.5467 -2.4445 -0.1880
  511WAT      O 1544   1.561   2.138   1.700  0.2546 -0.0594  0.3070
  511WAT     H1 1545   1.485   2.092   1.663  0.8931 -1.5445  0.7855
  511WAT     H2 1546   1.586   2.201   1.632 -0.0872 -1.0581 -0.7647
  512WAT      O 1547   1.642   0.971   1.913 -0.2388 -0.2852  0.3171
  512WAT     H1 1548   1.562   0.919   1.906  0.3360 -1.1102 -0.3801
  512WAT     H2 1549   1.676   0.952   2.000 -0.2469 -0.7669  0.2149
  513WAT      O 1550   1.576   2.346   0.646 -0.0973  0.5089  0.0874
  513WAT     H1 1551   1.543   2.434   0.661 -0.7650 -0.0740  2.6319
  513WAT     H2 1552   1.669   2.351   0.669  0.8025  1.2419 -3.1872
  514WAT      O 1553   1.157   1.800   1.436  0.2219 -0.3869 -0.2150
  514WAT     H1 1554   1.244   1.762   1.436  0.5372  0.2990  0.5350
  514WAT     H2 1555   1.104   1.741   1.382  1.6953  0.5096 -2.7872
  515WAT      O 1556   0.927   1.549   2.373  0.1184 -0.1530 -0.2152
  515WAT     H1 1557   0.858   1.614   2.359  0.8009  1.2393  2.2607
  515WAT     H2 1558   0.885   1.465   2.351 -1.6191  0.8543 -0.9939
  516WAT      O 1559   1.192   2.011   0.164  0.1775  0.8039 -0.2293
  516WAT     H1 1560   1.142   2.000   0.244 -0.3387  3.4098 -0.0930
  516WAT     H2 1561   1.146   1.959   0.099  0.3773 -1.0242  1.0180
  517WAT      O 1562   1.812   0.396   0.521 -0.2244  0.0827  0.2815
  517WAT     H1 1563   1.849   0.476   0.559 -0.7576  0.1141  0.7374
  517WAT     H2 1564   1.885   0.357   0.474 -0.5815  2.2651 -2.3556
  518WAT      O 1565   1.830   2.400   1.076 -0.5178  0.8399  0.1203
  518WAT     H1 1566   1.749   2.350   1.089 -0.3328  0.7558  1.0028
  518WAT     H2 1567   1.849   2.437   1.162 -0.8662  2.7719 -0.5915
  519WAT      O 1568   1.732   2.081   2.476  0.4764 -0.1551 -0.4999
  519WAT     H1 1569   1.701   2.166   2.507  1.0577  0.1513 -0.7481
  519WAT     H2 1570   1.803   2.102   2.416  0.8240 -0.8269 -0.3305
  520WAT      O 1571   1.415   0.848   1.693  0.0416 -0.5584 -0.1732
  520WAT     H1 1572   1.366   0.922   1.727  0.0727 -1.3959  1.8294
  520WAT     H2 1573   1.372   0.771   1.730  1.1766 -1.4373 -0.6001
  521WAT      O 1574   1.182   2.467   1.961  0.0726 -0.3062 -0.1512
  521WAT     H1 1575   1.179   2.378   1.996 -1.0865  0.3529  1.5925
  521WAT     H2 1576   1.244   2.513   2.016  0.5526  0.0218 -0.9447
  522WAT      O 1577   2.450   2.903   0.401  0.0363  0.0358 -0.0158
  522WAT     H1 1578   2.457   2.832   0.465  0.4204  0.0720 -0.0111
  522WAT     H2 1579   2.540   2.935   0.393 -0.0775  0.2811 -0.2892
  523WAT      O 1580   2.580   0.447   2.207 -0.6828  0.5200  0.2901
  523WAT     H1 1581   2.522   0.461   2.282 -1.6353  1.8895 -0.6552
  523WAT     H2 1582   2.541   0.372   2.161 -1.1527  0.8293  0.1778
  524WAT      O 1583   0.657   1.776   0.696 -0.6050  0.1749 -0.4216
  524WAT     H1 1584   0.605   1.856   0.687  0.5028  1.2256  1.7864
  524WAT     H2 1585   0.724   1.784   0.628  0.2506  1.8105  0.5435
  525WAT      O 1586   2.311   0.176   1.817 -0.2364  0.4507 -0.2757
  525WAT     H1 1587   2.249   0.225   1.763 -2.2456 -0.2220  1.2966
  525WAT     H2 1588   2.283   0.085   1.809 -1.6780  0.4653  3.0658
  526WAT      O 1589   1.346   0.859   2.045  0.1137  0.5611  0.3020
  526WAT     H1 1590   1.277   0.795   2.063  0.7873 -0.6976 -1.2993
  526WAT     H2 1591   1.427   0.808   2.051  0.7082  1.4028 -0.4155
  527WAT      O 1592   2.014   2.167   2.377 -0.1904  0.0016 -0.1236
  527WAT     H1 1593   2.106   2.184   2.397  0.1525 -1.0867 -0.7162
  527WAT     H2 1594   1.998   2.214   2.296 -0.8790  2.2643  1.2117
  528WAT      O 1595   1.313   0.034   0.201  0.0843  0.3708 -0.3456
  528WAT     H1 1596   1.293   0.127   0.188 -2.5332  0.2107  1.5672
  528WAT     H2 1597   1.352   0.030   0.289 -1.3013 -0.4402  0.2653
  529WAT      O 1598   0.378   1.949   1.606  0.5398  0.0337  0.2239
  529WAT     H1 1599   0.353   2.012   1.538  0.1989 -0.7502 -0.3848
  529WAT     H2 1600   0.337   1.983   1.686 -2.0466 -0.8712 -0.6164
  530WAT      O 1601   2.219   1.798   1.698  0.0965  0.5301  0.3967
  530WAT     H1 1602   2.199   1.890   1.679 -2.5976 -0.1593 -0.5969
  530WAT     H2 1603   2.274   1.801   1.776  0.1101  2.9958  0.3725
  531WAT      O 1604   0.355   1.819   2.364  0.6534 -0.3355  0.7051
  531WAT     H1 1605   0.362   1.729   2.394 -0.8309 -0.3174  1.1777
  531WAT     H2 1606   0.350   1.871   2.444  0.3562  0.0549  0.4389
  532WAT      O 1607   1.199   1.618   1.788  0.2026 -0.3395 -0.0200
  532WAT     H1 1608   1.240   1.667   1.859 -3.2944  0.0248  1.9655
  532WAT     H2 1609   1.166   1.539   1.830 -0.6125 -0.8829 -1.6069
  533WAT      O 1610   1.417   2.575   0.314  0.2217 -0.2907  0.4111
  533WAT     H1 1611   1.509   2.592   0.338  0.5060 -2.0671  0.6797
  533WAT     H2 1612   1.370   2.580   0.397 -0.1370  1.5875  0.1533
  534WAT      O 1613   0.856   0.097   1.114  0.3935 -0.6600 -0.0105
  534WAT     H1 1614   0.930   0.038   1.103  0.0040 -1.0426 -0.6216
  534WAT     H2 1615   0.831   0.122   1.025  0.4257  0.2760  0.2262
  535WAT      O 1616   2.680   0.159   0.320 -0.1472  0.1870 -0.5538
  535WAT     H1 1617   2.599   0.208   0.305 -1.6804 -2.2930 -1.0489
  535WAT     H2 1618   2.707   0.130   0.233 -0.5172 -1.5865 -0.1157
  536WAT      O 1619   1.908   1.017   0.712 -0.3831  0.3140  0.3639
  536WAT     H1 1620   2.000   1.035   0.693 -0.5173  0.2098 -0.4171
  536WAT     H2 1621   1.904   0.921   0.720 -0.4117  0.3248  0.4855
  537WAT      O 1622   2.423   0.084   0.752 -0.2818  0.0048 -0.3718
  537WAT     H1 1623   2.381   0.129   0.679 -2.7933 -2.0233 -0.3493
  537WAT     H2 1624   2.366   0.102   0.827  0.4687 -0.5474  0.3452
  538WAT      O 1625   2.179   2.508   0.834 -0.4751  0.0795 -0.3441
  538WAT     H1 1626   2.107   2.444   0.834 -0.0920 -0.3748 -1.2053
  538WAT     H2 1627   2.245   2.469   0.778 -0.5502  1.5916 -1.5546
  539WAT      O 1628   0.592   0.159   0.551 -0.3902  0.2846  0.2664
  539WAT     H1 1629   0.663   0.201   0.502  0.9465 -1.2556  0.7852
  539WAT     H2 1630   0.559   0.228   0.609  0.0070  1.2985 -0.6819
  540WAT      O 1631   1.629   1.584   0.758  0.0842 -0.1737  0.4681
  540WAT     H1 1632   1.644   1.679   0.755  0.5224 -0.2540 -0.0928
  540WAT     H2 1633   1.626   1.558   0.666 -0.0026 -0.7112  0.6207
  541WAT      O 1634   1.358   2.012   2.147 -0.2147 -0.1320  0.9644
  541WAT     H1 1635   1.422   2.028   2.216  1.5818  1.5900 -0.9544
  541WAT     H2 1636   1.352   1.917   2.141  1.3195 -0.3260  1.9640
  542WAT      O 1637   1.165   1.605   1.170 -0.1909 -0.1633  0.2832
  542WAT     H1 1638   1.082   1.628   1.212  0.3989  0.0691  1.3663
  542WAT     H2 1639   1.151   1.517   1.136 -1.1168  0.1626 -0.2015
  543WAT      O 1640   1.999   0.435   0.132 -0.2810  0.3566 -0.0711
  543WAT     H1 1641   1.983   0.342   0.149 -1.8541  0.5218 -0.4756
  543WAT     H2 1642   2.064   0.435   0.062 -0.9375 -0.4688 -0.7091
  544WAT      O 1643   2.318   2.324   0.157  0.0588  0.4079 -0.3123
  544WAT     H1 1644   2.395   2.379   0.141 -0.7240  1.2483 -1.2867
  544WAT     H2 1645   2.321   2.258   0.089 -0.4217  0.8247 -0.7419
  545WAT      O 1646   1.608   0.707   0.737 -0.1329 -0.1121 -0.0938
  545WAT     H1 1647   1.582   0.762   0.663 -0.0689 -1.7594 -1.4043
  545WAT     H2 1648   1.532   0.709   0.796 -0.6333  0.3483 -0.7346
  546WAT      O 1649   0.327   0.001   0.624 -0.2198 -0.5473 -0.2714
  546WAT     H1 1650   0.259   0.018   0.559  1.6789 -0.1727 -2.2952
  546WAT     H2 1651   0.378   0.082   0.628  0.3437 -0.9399  0.8843
  547WAT      O 1652   0.603   0.447   1.553  0.2790 -0.2004  0.4807
  547WAT     H1 1653   0.514   0.416   1.535  0.3366 -0.0388 -0.1016
  547WAT     H2 1654   0.659   0.372   1.531  0.1390 -1.4146  3.7040
  548WAT      O 1655   2.443   1.788   0.675 -0.1270  0.2011 -0.0025
  548WAT     H1 1656   2.348   1.789   0.660 -0.0980  1.1855 -0.2200
  548WAT     H2 1657   2.464   1.879   0.698  1.0654  0.4924 -1.9993
  549WAT      O 1658   0.177   0.774   1.441 -0.0062  0.3488 -0.2552
  549WAT     H1 1659   0.256   0.798   1.490  0.2049  1.3680 -1.0479
  549WAT     H2 1660   0.113   0.841   1.466 -0.1230  0.4384 -0.7966
  550WAT      O 1661   2.341   1.211   0.512 -0.0472 -0.1471  0.0983
  550WAT     H1 1662   2.255   1.205   0.472  0.6577  0.3823 -1.5774
  550WAT     H2 1663   2.363   1.304   0.510  0.8362 -0.3513 -0.0932
  551WAT      O 1664   0.819   0.482   1.725 -0.4171  0.6883 -0.1307
  551WAT     H1 1665   0.733   0.463   1.688 -0.9395  0.7526  1.0071
  551WAT     H2 1666   0.876   0.494   1.649 -1.0168 -1.0631 -0.9165
  552WAT      O 1667   0.121   2.451   0.463 -0.0841 -0.3432  0.2253
  552WAT     H1 1668   0.173   2.470   0.541  0.0424  1.0863 -0.1823
  552WAT     H2 1669   0.038   2.496   0.478  0.5962  1.5399 -1.2140
  553WAT      O 1670   1.799   2.720   1.095 -0.6640 -0.6112  0.0992
  553WAT     H1 1671   1.874   2.762   1.138 -0.6572  0.1715 -0.6410
  553WAT     H2 1672   1.764   2.660   1.161 -0.6095  0.4922  1.1648
  554WAT      O 1673   1.669   1.770   2.240  0.0477 -0.1647 -0.0358
  554WAT     H1 1674   1.576   1.791   2.233 -0.5708 -2.7933 -0.6217
  554WAT     H2 1675   1.685   1.760   2.334 -0.5020 -0.6666  0.0056
  555WAT      O 1676   1.541   2.283   0.900 -0.3953 -0.2729 -0.2017
  555WAT     H1 1677   1.582   2.206   0.941  0.6413  0.1141 -0.4626
  555WAT     H2 1678   1.574   2.282   0.811  1.3284  1.6010  0.3438
  556WAT      O 1679   2.045   2.088   0.748 -0.1310  0.1797 -0.2058
  556WAT     H1 1680   2.053   2.000   0.786 -1.0895  0.1163 -0.1398
  556WAT     H2 1681   2.012   2.142   0.820  0.3709  0.5815 -0.2710
  557WAT      O 1682   1.719   1.544   1.650 -0.2806  0.0787 -0.4854
  557WAT     H1 1683   1.663   1.622   1.642 -3.1869 -1.7342  0.7176
  557WAT     H2 1684   1.665   1.472   1.617  1.6235 -1.7227  0.1548
  558WAT      O 1685   0.644   1.379   1.259  0.3094 -0.0476  0.1626
  558WAT     H1 1686   0.640   1.397   1.165 -0.0503 -0.6208  0.0651
  558WAT     H2 1687   0.623   1.286   1.267  0.4510 -0.0312  0.8026
  559WAT      O 1688   2.308   0.663   1.581  0.1788 -0.6916 -0.1410
  559WAT     H1 1689   2.229   0.660   1.634  0.7091 -0.1781  0.7034
  559WAT     H2 1690   2.336   0.572   1.572 -0.9095 -0.9483 -1.0817
  560WAT      O 1691   2.373   2.096   1.381  0.0657 -0.2501 -0.0637
  560WAT     H1 1692   2.283   2.063   1.388  0.1923 -0.2014  2.8751
  560WAT     H2 1693   2.425   2.036   1.434  1.4257  0.8973 -0.0388
  561WAT      O 1694   0.409   1.350   1.598  0.1049  0.5100  0.0707
  561WAT     H1 1695   0.482   1.410   1.612  0.6531 -0.6380  2.7107
  561WAT     H2 1696   0.450   1.271   1.561 -0.0358  0.3915  0.1684
  562WAT      O 1697   1.665   1.869   0.702  0.0996 -0.0502  0.3066
  562WAT     H1 1698   1.614   1.924   0.642 -0.8226 -2.1457 -0.9449
  562WAT     H2 1699   1.734   1.833   0.647 -0.4953 -1.6540  0.5660
  563WAT      O 1700   1.486   0.331   2.338 -0.1135 -0.2096  0.5275
  563WAT     H1 1701   1.494   0.424   2.357 -1.0633  0.3696 -1.6510
  563WAT     H2 1702   1.394   0.310   2.355 -1.0074  0.3277 -2.8972
  564WAT      O 1703   1.342   0.648   1.343  0.0101  0.1730 -0.1442
  564WAT     H1 1704   1.331   0.714   1.412 -0.3325 -0.7419  0.6910
  564WAT     H2 1705   1.262   0.654   1.291  0.2714  0.8687 -0.4798
  565WAT      O 1706   1.897   1.906   0.542 -0.0933 -0.3641 -0.4726
  565WAT     H1 1707   1.954   1.962   0.594  1.1592 -0.6271 -1.5226
  565WAT     H2 1708   1.917   1.817   0.570 -0.2036 -0.4407 -0.6302
  566WAT      O 1709   1.708   2.041   1.327 -0.1685  0.6513 -0.0222
  566WAT     H1 1710   1.616   2.025   1.307 -0.0526 -0.4238  0.2649
  566WAT     H2 1711   1.746   1.954   1.339  1.6735  0.8061 -3.4866
  567WAT      O 1712   2.418   0.425   0.605  0.1784  0.3768  0.0736
  567WAT     H1 1713   2.390   0.410   0.515  0.2767 -0.8422  0.2259
  567WAT     H2 1714   2.514   0.425   0.600  0.2490 -1.4811  0.3888
  568WAT      O 1715   2.500   2.694   2.047  0.6496  0.1634  0.0381
  568WAT     H1 1716   2.526   2.619   2.100  0.1661  0.3767  0.5845
  568WAT     H2 1717   2.405   2.694   2.051  0.6514  0.9537  0.2598
  569WAT      O 1718   2.639   1.573   0.722 -0.3057 -0.0920 -0.0013
  569WAT     H1 1719   2.579   1.645   0.705 -1.5483 -0.8385  0.9756
  569WAT     H2 1720   2.691   1.602   0.798 -0.1753  0.1205 -0.1701
  570WAT      O 1721   2.707   0.143   0.797 -0.7584  0.0812 -0.1033
  570WAT     H1 1722   2.722   0.209   0.864 -0.3602  1.1968 -1.2402
  570WAT     H2 1723   2.612   0.143   0.784 -0.8113  0.0434  0.2836
  571WAT      O 1724   2.119   2.014   0.424 -0.8559 -0.2940 -0.0151
  571WAT     H1 1725   2.116   2.105   0.394  0.0931 -0.0726  0.5246
  571WAT     H2 1726   2.041   1.974   0.387 -1.4733  0.8336  0.0248
  572WAT      O 1727   0.289   2.368   1.705  0.4280 -0.1349 -0.1382
  572WAT     H1 1728   0.306   2.460   1.728  1.5397 -0.1214 -0.9359
  572WAT     H2 1729   0.320   2.318   1.781  0.9520  0.0851 -0.2059
  573WAT      O 1730   1.194   0.643   2.146 -0.7265  0.4378 -0.2951
  573WAT     H1 1731   1.225   0.554   2.164 -0.1605  0.7778  0.4483
  573WAT     H2 1732   1.100   0.632   2.131 -1.0824 -0.0439  1.8757
  574WAT      O 1733   1.949   2.889   0.457 -0.4158  0.0114 -0.2583
  574WAT     H1 1734   1.939   2.830   0.383  0.6216  1.0955 -1.3120
  574WAT     H2 1735   1.998   2.839   0.522 -3.3859 -1.8088  0.8045
  575WAT      O 1736   0.160   2.564   0.031 -0.1067  0.3781  0.0426
  575WAT     H1 1737   0.191   2.599   0.114  1.9936  0.8464 -0.8806
  575WAT     H2 1738   0.153   2.640  -0.027  0.2677 -0.1580 -0.7293
  576WAT      O 1739   2.007   2.809   2.278  0.4037 -0.5934  0.2769
  576WAT     H1 1740   2.011   2.905   2.282  0.1654 -0.6150  1.2333
  576WAT     H2 1741   1.928   2.790   2.228  2.1225 -0.2990 -2.8074
  577WAT      O 1742   1.191   0.495   0.373  0.2376 -0.1898  0.1049
  577WAT     H1 1743   1.190   0.533   0.285 -0.9567  1.7403  0.8902
  577WAT     H2 1744   1.278   0.457   0.382  0.9319  0.9646 -1.3586
  578WAT      O 1745   0.676   2.380   2.332 -0.2372 -0.1772  0.1715
  578WAT     H1 1746   0.659   2.448   2.397  2.3457  0.9524 -0.2107
  578WAT     H2 1747   0.717   2.309   2.382  0.3323  0.0587  0.0554
  579WAT      O 1748   0.435   2.641   1.038  0.3056  0.0524  0.2950
  579WAT     H1 1749   0.385   2.651   0.957  0.7224  0.3455  0.0655
  579WAT     H2 1750   0.371   2.613   1.103  0.0498 -0.6593 -0.2440
  580WAT      O 1751   2.496   2.646   0.843  0.2360  0.0748 -0.2001
  580WAT     H1 1752   2.511   2.564   0.797 -1.6911  0.3531 -1.4477
  580WAT     H2 1753   2.534   2.632   0.930 -0.1406 -2.1700 -0.3403
  581WAT      O 1754   1.848   2.191   2.071 -0.3731 -0.7269  0.2930
  581WAT     H1 1755   1.823   2.283   2.082  0.1281 -0.6953  1.3290
  581WAT     H2 1756   1.765   2.145   2.060 -0.6839 -0.2565  0.6304
  582WAT      O 1757   0.728   1.408   0.428  0.1846  0.2604 -0.3173
  582WAT     H1 1758   0.793   1.477   0.432  1.4776 -0.8714  3.8594
  582WAT     H2 1759   0.776   1.328   0.449 -2.2446 -0.7880  1.9176
  583WAT      O 1760   0.640   2.932   0.243  0.2318 -0.0274 -0.2064
  583WAT     H1 1761   0.619   2.892   0.327  0.9166 -0.2582 -0.1410
  583WAT     H2 1762   0.568   2.907   0.186  0.0639 -0.3709  0.1485
  584WAT      O 1763   2.196   0.446   0.758  0.2195  0.2419 -0.2392
  584WAT     H1 1764   2.241   0.516   0.805  0.4970 -1.2019  1.7895
  584WAT     H2 1765   2.265   0.404   0.706  0.3571  0.5465 -0.3056
  585WAT      O 1766   0.124   1.331   0.760  0.2474 -0.1633 -0.1707
  585WAT     H1 1767   0.126   1.344   0.665 -2.8297 -0.9895 -0.4561
  585WAT     H2 1768   0.095   1.415   0.795 -3.8393 -1.2052 -0.5725
  586WAT      O 1769   2.142   0.706   2.491  0.4766 -0.3131 -0.3532
  586WAT     H1 1770   2.174   0.796   2.484  0.5088 -0.3451 -0.6043
  586WAT     H2 1771   2.220   0.651   2.486  0.3400 -0.4283 -1.6842
  587WAT      O 1772   0.951   2.002   1.451  0.6871 -0.4834  0.4524
  587WAT     H1 1773   0.977   1.928   1.397  0.8388  0.7674 -1.2771
  587WAT     H2 1774   0.855   2.004   1.445  0.6605 -0.7599  0.7999
  588WAT      O 1775   2.143   2.825   1.788  0.2120  0.1077 -0.2582
  588WAT     H1 1776   2.095   2.767   1.730 -0.0578 -0.8997  0.9164
  588WAT     H2 1777   2.234   2.795   1.783 -0.2222 -1.9560  1.9531
  589WAT      O 1778   0.369   0.838   1.072  0.8688 -0.4200 -0.0412
  589WAT     H1 1779   0.283   0.879   1.081  0.1357 -1.8488 -0.2254
  589WAT     H2 1780   0.425   0.907   1.037 -0.7291 -0.0013 -1.9713
  590WAT      O 1781   1.788   2.531   0.018 -0.2688 -0.5798  0.5839
  590WAT     H1 1782   1.724   2.462   0.000  0.4560 -0.6248 -2.4237
  590WAT     H2 1783   1.828   2.507   0.101 -2.2341 -2.0217  1.1672
  591WAT      O 1784   2.139   0.145   0.681 -0.2240 -0.4457  0.3059
  591WAT     H1 1785   2.158   0.174   0.770  0.0860  1.0047 -0.2138
  591WAT     H2 1786   2.099   0.058   0.693  1.1231 -0.9196  1.7697
  592WAT      O 1787   2.177   1.054   0.673 -0.4937 -0.5338  0.3331
  592WAT     H1 1788   2.173   1.098   0.758 -2.4141  1.5042 -0.6955
  592WAT     H2 1789   2.261   1.082   0.636 -1.9281  3.2436 -0.6094
  593WAT      O 1790   1.933   0.408   0.815 -0.1118 -0.1649 -0.2011
  593WAT     H1 1791   1.904   0.324   0.779 -0.4167  0.5286 -1.6785
  593WAT     H2 1792   2.028   0.409   0.799 -0.5041  1.0081 -3.0993
  594WAT      O 1793   0.709   0.139   0.866  0.2950 -0.0136 -0.0939
  594WAT     H1 1794   0.632   0.185   0.833  0.0394  0.0811  0.6098
  594WAT     H2 1795   0.783   0.194   0.840 -0.0106  0.8495  0.7954
  595WAT      O 1796   1.012   0.588   0.870  0.2259 -0.3610 -0.0222
  595WAT     H1 1797   0.924   0.566   0.902 -0.4159  0.8100 -0.8881
  595WAT     H2 1798   1.025   0.530   0.794 -0.0420 -0.1528 -0.2312
  596WAT      O 1799   1.516   1.481   2.087  0.0709 -0.0600 -0.0442
  596WAT     H1 1800   1.508   1.406   2.146 -0.6010  0.8932  1.1445
  596WAT     H2 1801   1.512   1.444   2.000 -0.2341 -1.4124  0.5206
  597WAT      O 1802   0.641   0.898   2.249 -0.5790 -0.1841 -0.0338
  597WAT     H1 1803   0.706   0.828   2.243 -0.1847  0.0797  0.8930
  597WAT     H2 1804   0.649   0.946   2.167  0.4314 -0.1388  0.0773
  598WAT      O 1805   1.452   0.360   1.739  0.5478 -0.4766 -0.0962
  598WAT     H1 1806   1.421   0.450   1.748  1.2442 -0.4001  2.5434
  598WAT     H2 1807   1.385   0.316   1.688 -0.6375  1.1735 -0.0372
  599WAT      O 1808   0.845   1.685   0.891 -0.6800  0.1873 -0.1625
  599WAT     H1 1809   0.788   1.636   0.950 -1.3325  0.0944 -0.8545
  599WAT     H2 1810   0.786   1.727   0.829 -0.0371  0.6869 -0.4572
  600WAT      O 1811   0.569   1.127   1.482  0.1779  0.3632  0.3743
  600WAT     H1 1812   0.626   1.120   1.406 -0.8038  1.5255 -0.5078
  600WAT     H2 1813   0.623   1.099   1.556  2.0572  1.8556 -0.3526
  601WAT      O 1814   1.181   0.376   1.611  0.2422  0.7842  0.5135
  601WAT     H1 1815   1.109   0.414   1.560  0.3443  1.4140  0.8308
  601WAT     H2 1816   1.142   0.300   1.653  0.6927 -1.0963 -2.2211
  602WAT      O 1817   1.331   1.403   1.330 -0.4051  0.3134 -0.1698
  602WAT     H1 1818   1.289   1.370   1.409  0.5892  1.4218  0.8543
  602WAT     H2 1819   1.259   1.444   1.280 -0.6349  2.1825  1.5432
  603WAT      O 1820   2.505   1.415   1.505 -0.1277  0.2983 -0.4987
  603WAT     H1 1821   2.542   1.397   1.591  0.4084  0.4741 -0.6874
  603WAT     H2 1822   2.536   1.343   1.450  0.9012  1.0415 -0.9318
  604WAT      O 1823   2.123   0.121   1.397  0.0291  0.4131 -0.3789
  604WAT     H1 1824   2.050   0.113   1.458 -0.4551  1.1830 -0.8400
  604WAT     H2 1825   2.195   0.074   1.439  0.4509  2.9053  1.9248
  605WAT      O 1826   1.160   2.388   0.683  0.1565  1.0852  0.3540
  605WAT     H1 1827   1.104   2.311   0.693 -1.3478  2.0472 -0.2985
  605WAT     H2 1828   1.167   2.424   0.772  1.9089 -0.4425  0.8938
  606WAT      O 1829   0.186   0.522   1.742  0.2690  0.1870 -0.5490
  606WAT     H1 1830   0.253   0.590   1.747 -0.1045  0.4901  0.5061
  606WAT     H2 1831   0.107   0.563   1.778  0.2425 -1.0519  0.8825
  607WAT      O 1832   2.030   2.809   0.714 -0.5153 -0.3695  0.3779
  607WAT     H1 1833   2.122   2.792   0.691 -1.2819 -1.8281 -2.0192
  607WAT     H2 1834   2.007   2.740   0.775 -0.9490 -2.4006 -1.9154
  608WAT      O 1835   1.699   2.716   0.595  0.2014  0.1421 -0.4211
  608WAT     H1 1836   1.672   2.740   0.684  0.3786  2.4223 -0.9386
  608WAT     H2 1837   1.794   2.715   0.598  0.3365  3.1441 -1.2146
  609WAT      O 1838   1.151   2.788   0.727  0.3303 -0.5379 -0.3062
  609WAT     H1 1839   1.120   2.769   0.638 -0.5536  0.1754 -0.1756
  609WAT     H2 1840   1.099   2.731   0.783  0.2253 -0.3277 -0.1865
  610WAT      O 1841   0.529   2.735   1.442 -0.4696 -0.0908  0.2443
  610WAT     H1 1842   0.552   2.811   1.387  1.7485  0.1138  1.3783
  610WAT     H2 1843   0.486   2.773   1.518  0.6247  0.0370  0.8035
  611WAT      O 1844   1.710   0.877   1.125  0.1750 -0.1688 -0.5697
  611WAT     H1 1845   1.737   0.792   1.090 -0.5403 -0.1801 -1.1258
  611WAT     H2 1846   1.722   0.938   1.052 -1.2485 -0.1767 -0.8463
  612WAT      O 1847   0.445   1.607   0.761  0.3561 -0.3282  0.2851
  612WAT     H1 1848   0.518   1.652   0.719  0.6341  0.7428  1.8184
  612WAT     H2 1849   0.368   1.659   0.739 -0.0199 -1.5119 -1.4125
  613WAT      O 1850   0.548   0.453   1.100 -0.6352  0.3547  0.1684
  613WAT     H1 1851   0.455   0.467   1.118 -0.5610  1.3715 -0.1583
  613WAT     H2 1852   0.592   0.527   1.141  0.0357 -0.0828  0.2649
  614WAT      O 1853   1.715   2.306   1.423 -0.1572  0.3778  0.3293
  614WAT     H1 1854   1.672   2.330   1.341 -0.2304  0.4502  0.3889
  614WAT     H2 1855   1.730   2.212   1.416 -2.3424 -0.1018  1.2397
  615WAT      O 1856   2.702   0.781   1.922 -0.1972 -0.3036 -0.4146
  615WAT     H1 1857   2.678   0.761   2.013 -1.2502 -1.0911 -0.8392
  615WAT     H2 1858   2.619   0.775   1.874  0.3238  0.2361 -1.4046
  616WAT      O 1859   0.183   1.099   2.357  0.5130  0.5107  0.6816
  616WAT     H1 1860   0.256   1.113   2.297  1.0092 -1.5077  0.7632
  616WAT     H2 1861   0.176   1.004   2.365 -2.7140  0.5625 -0.0514
  617WAT      O 1862   0.705   0.770   0.458  0.1138 -0.0900  0.0175
  617WAT     H1 1863   0.692   0.777   0.553  0.5104 -0.9591  0.1447
  617WAT     H2 1864   0.790   0.726   0.449 -1.1127 -2.4894 -0.6970
  618WAT      O 1865   0.080   2.852   0.972 -0.2490 -0.0761  0.6460
  618WAT     H1 1866   0.089   2.928   0.915  1.4282  0.6953  1.8701
  618WAT     H2 1867  -0.000   2.868   1.021  0.4101  1.2355  1.3336
  619WAT      O 1868   1.631   2.935   1.589  0.5722  0.0661 -0.0685
  619WAT     H1 1869   1.614   2.844   1.613  0.7419  0.4203  1.5399
  619WAT     H2 1870   1.568   2.954   1.520  0.9974 -1.4573 -0.9367
  620WAT      O 1871   2.659   2.122   1.923  0.2357 -0.2701 -0.1286
  620WAT     H1 1872   2.740   2.124   1.974  0.6363 -1.3638 -0.6957
  620WAT     H2 1873   2.601   2.064   1.972  0.6151 -1.3090 -0.8868
  621WAT      O 1874   1.458   0.356   0.166  0.2950  0.4744 -0.4330
  621WAT     H1 1875   1.505   0.396   0.094  0.6052  0.4620 -0.2396
  621WAT     H2 1876   1.390   0.303   0.124  0.6432  0.2529 -0.7223
  622WAT      O 1877   2.567   1.201   1.943  0.2355 -0.1143 -0.2513
  622WAT     H1 1878   2.527   1.119   1.913  1.3117 -0.5641 -0.5108
  622WAT     H2 1879   2.527   1.217   2.029  0.3553 -1.1698  0.0152
  623WAT      O 1880   2.509   0.186   2.110  0.5409  0.0724  0.2729
  623WAT     H1 1881   2.545   0.144   2.188  0.4495  1.5751  1.1578
  623WAT     H2 1882   2.414   0.180   2.120  0.5296 -0.4290 -0.1182
  624WAT      O 1883   2.188   1.802   0.591 -0.0632  0.2947 -0.1995
  624WAT     H1 1884   2.107   1.755   0.610  0.5647 -0.9019 -0.4062
  624WAT     H2 1885   2.165   1.861   0.519 -0.4181 -1.0554 -1.2357
  625WAT      O 1886   2.540   0.632   0.268  0.2825  0.2588  0.6042
  625WAT     H1 1887   2.473   0.673   0.212  1.5819  1.3274 -0.2137
  625WAT     H2 1888   2.604   0.701   0.283 -0.1742  0.1526  3.7769
  626WAT      O 1889   2.359   1.961   0.339  0.4621 -0.3150  0.2457
  626WAT     H1 1890   2.393   2.051   0.343  0.2416 -0.2223  0.0274
  626WAT     H2 1891   2.274   1.965   0.383 -0.0446 -0.1833 -0.7211
  627WAT      O 1892   2.713   0.281   1.079  0.1775  0.5099 -0.0558
  627WAT     H1 1893   2.642   0.342   1.097  0.9734  1.8651 -1.2216
  627WAT     H2 1894   2.680   0.196   1.106 -1.2182  1.3554  1.0350
  628WAT      O 1895   1.059   0.857   1.028  0.4192 -0.1772 -0.8702
  628WAT     H1 1896   1.125   0.905   1.078  0.9643 -0.8020 -0.9656
  628WAT     H2 1897   1.091   0.767   1.028 -0.6143 -0.5465 -0.6519
  629WAT      O 1898   1.656   2.269   0.384 -0.4342 -0.4968 -0.0660
  629WAT     H1 1899   1.720   2.332   0.351 -1.1091  1.0545  1.4399
  629WAT     H2 1900   1.642   2.294   0.475 -1.1691 -2.4984  0.4256
  630WAT      O 1901   0.297   0.583   2.228 -0.0521  0.2859  0.2541
  630WAT     H1 1902   0.363   0.576   2.297 -0.2906 -2.4319  0.3196
  630WAT     H2 1903   0.339   0.542   2.152 -0.7733  0.8054 -0.4329
  631WAT      O 1904   1.765   1.956   1.637  0.3585  0.0163  0.3101
  631WAT     H1 1905   1.849   1.994   1.609 -0.2275  1.3118  0.2301
  631WAT     H2 1906   1.722   2.027   1.684 -0.7230 -0.6199  0.2981
  632WAT      O 1907   0.693   2.076   2.173 -0.3345  0.0675 -0.1844
  632WAT     H1 1908   0.754   2.076   2.247  1.0971  0.7654 -1.3319
  632WAT     H2 1909   0.723   2.147   2.117 -0.6816 -1.1691 -2.0062
  633WAT      O 1910   2.340   1.475   2.286  0.5060  0.4420 -0.0256
  633WAT     H1 1911   2.272   1.440   2.343  1.0158  1.1807  1.0993
  633WAT     H2 1912   2.343   1.569   2.308  1.3102  0.5719 -0.6460
   2.68039   2.91107   2.49899
